
     Program PWSCF v.6.4.1 starts on 15Jan2023 at  3:56:51 

     This program is part of the open-source Quantum ESPRESSO suite
     for quantum simulation of materials; please cite
         "P. Giannozzi et al., J. Phys.:Condens. Matter 21 395502 (2009);
         "P. Giannozzi et al., J. Phys.:Condens. Matter 29 465901 (2017);
          URL http://www.quantum-espresso.org", 
     in publications or presentations arising from this work. More details at
     http://www.quantum-espresso.org/quote

     Parallel version (MPI & OpenMP), running on       8 processor cores
     Number of MPI processes:                 1
     Threads/MPI process:                     8

     MPI processes distributed on     1 nodes
     Waiting for input...
     Reading input from standard input

     Current dimensions of program PWSCF are:
     Max number of different atomic species (ntypx) = 10
     Max number of k-points (npk) =  40000
     Max angular momentum in pseudopotentials (lmaxx) =  3
     Message from routine setup:
     At least one non s.o. pseudo

     Subspace diagonalization in iterative solution of the eigenvalue problem:
     a serial algorithm will be used


     G-vector sticks info
     --------------------
     sticks:   dense  smooth     PW     G-vecs:    dense   smooth      PW
     Sum         597     265     91                 9211     2741     575



     bravais-lattice index     =            5
     lattice parameter (alat)  =       4.4950  a.u.
     unit-cell volume          =      57.1897 (a.u.)^3
     number of atoms/cell      =           10
     number of atomic types    =            2
     number of electrons       =        48.00
     number of Kohn-Sham states=           52
     kinetic-energy cutoff     =      50.0000  Ry
     charge density cutoff     =     450.0000  Ry
     convergence threshold     =      1.0E-06
     mixing beta               =       0.7000
     number of iterations used =            8  plain     mixing
     Exchange-correlation      = SLA  PZ   NOGX NOGC ( 1  1  0  0 0 0)
     Non magnetic calculation with spin-orbit


     celldm(1)=   4.494960  celldm(2)=   0.000000  celldm(3)=   0.000000
     celldm(4)=   0.569423  celldm(5)=   0.000000  celldm(6)=   0.000000

     crystal axes: (cart. coord. in units of alat)
               a(1) = (   0.463992  -0.267886   0.844363 )  
               a(2) = (   0.000000   0.535772   0.844363 )  
               a(3) = (  -0.463992  -0.267886   0.844363 )  

     reciprocal axes: (cart. coord. in units 2 pi/alat)
               b(1) = (  1.077605 -0.622156  0.394775 )  
               b(2) = (  0.000000  1.244311  0.394775 )  
               b(3) = ( -1.077605 -0.622156  0.394775 )  


     PseudoPot. # 1 for Al read from file:
     .\al_lda_v1.uspp.F.UPF
     MD5 check sum: 51a9e5980debfdd3404790b200e14add
     Pseudo is Ultrasoft + core correction, Zval =  3.0
     Generated by new atomic code, or converted to UPF format
     Using radial grid of  893 points,  3 beta functions with: 
                l(1) =   0
                l(2) =   1
                l(3) =   2
     Q(r) pseudized with  8 coefficients,  rinner =    0.900   0.900   0.900
                                                       0.900   0.900

     PseudoPot. # 2 for O  read from file:
     .\o_lda_v1.2.uspp.F.UPF
     MD5 check sum: 194b818514d2a7dbb603bb78519a4f40
     Pseudo is Ultrasoft + core correction, Zval =  6.0
     Generated by new atomic code, or converted to UPF format
     Using radial grid of  737 points,  5 beta functions with: 
                l(1) =   0
                l(2) =   0
                l(3) =   1
                l(4) =   1
                l(5) =   2
     Q(r) pseudized with  8 coefficients,  rinner =    0.900   0.900   0.900
                                                       0.900   0.900

     atomic species   valence    mass     pseudopotential
        Al             3.00    26.98154     Al( 1.00)
        O              6.00    15.99900     O ( 1.00)

     12 Sym. Ops., with inversion, found ( 6 have fractional translation)


                                    s                        frac. trans.

      isym =  1     identity                                     

 cryst.   s( 1) = (     1          0          0      )
                  (     0          1          0      )
                  (     0          0          1      )

 cart.    s( 1) = (  1.0000000  0.0000000  0.0000000 )
                  (  0.0000000  1.0000000  0.0000000 )
                  (  0.0000000  0.0000000  1.0000000 )


      isym =  2     180 deg rotation - cart. axis [1,0,0]        

 cryst.   s( 2) = (     0          0         -1      )    f =(  0.5000000 )
                  (     0         -1          0      )       (  0.5000000 )
                  (    -1          0          0      )       (  0.5000000 )

 cart.    s( 2) = (  1.0000000  0.0000000  0.0000000 )    f =(  0.0000000 )
                  (  0.0000000 -1.0000000  0.0000000 )       ( -0.0000000 )
                  (  0.0000000  0.0000000 -1.0000000 )       (  1.2665443 )


      isym =  3     120 deg rotation - cryst. axis [0,0,1]       

 cryst.   s( 3) = (     0          1          0      )
                  (     0          0          1      )
                  (     1          0          0      )

 cart.    s( 3) = ( -0.5000000 -0.8660254 -0.0000000 )
                  (  0.8660254 -0.5000000 -0.0000000 )
                  (  0.0000000  0.0000000  1.0000000 )


      isym =  4     120 deg rotation - cryst. axis [0,0,-1]      

 cryst.   s( 4) = (     0          0          1      )
                  (     1          0          0      )
                  (     0          1          0      )

 cart.    s( 4) = ( -0.5000000  0.8660254  0.0000000 )
                  ( -0.8660254 -0.5000000 -0.0000000 )
                  (  0.0000000  0.0000000  1.0000000 )


      isym =  5     180 deg rotation - cryst. axis [0,1,0]       

 cryst.   s( 5) = (     0         -1          0      )    f =(  0.5000000 )
                  (    -1          0          0      )       (  0.5000000 )
                  (     0          0         -1      )       (  0.5000000 )

 cart.    s( 5) = ( -0.5000000 -0.8660254 -0.0000000 )    f =(  0.0000000 )
                  ( -0.8660254  0.5000000  0.0000000 )       ( -0.0000000 )
                  (  0.0000000  0.0000000 -1.0000000 )       (  1.2665443 )


      isym =  6     180 deg rotation - cryst. axis [1,1,0]       

 cryst.   s( 6) = (    -1          0          0      )    f =(  0.5000000 )
                  (     0          0         -1      )       (  0.5000000 )
                  (     0         -1          0      )       (  0.5000000 )

 cart.    s( 6) = ( -0.5000000  0.8660254  0.0000000 )    f =(  0.0000000 )
                  (  0.8660254  0.5000000  0.0000000 )       ( -0.0000000 )
                  (  0.0000000  0.0000000 -1.0000000 )       (  1.2665443 )


      isym =  7     inversion                                    

 cryst.   s( 7) = (    -1          0          0      )
                  (     0         -1          0      )
                  (     0          0         -1      )

 cart.    s( 7) = ( -1.0000000  0.0000000  0.0000000 )
                  (  0.0000000 -1.0000000  0.0000000 )
                  (  0.0000000  0.0000000 -1.0000000 )


      isym =  8     inv. 180 deg rotation - cart. axis [1,0,0]   

 cryst.   s( 8) = (     0          0          1      )    f =( -0.5000000 )
                  (     0          1          0      )       ( -0.5000000 )
                  (     1          0          0      )       ( -0.5000000 )

 cart.    s( 8) = ( -1.0000000  0.0000000  0.0000000 )    f =(  0.0000000 )
                  (  0.0000000  1.0000000  0.0000000 )       (  0.0000000 )
                  (  0.0000000  0.0000000  1.0000000 )       ( -1.2665443 )


      isym =  9     inv. 120 deg rotation - cryst. axis [0,0,1]  

 cryst.   s( 9) = (     0         -1          0      )
                  (     0          0         -1      )
                  (    -1          0          0      )

 cart.    s( 9) = (  0.5000000  0.8660254  0.0000000 )
                  ( -0.8660254  0.5000000  0.0000000 )
                  (  0.0000000  0.0000000 -1.0000000 )


      isym = 10     inv. 120 deg rotation - cryst. axis [0,0,-1] 

 cryst.   s(10) = (     0          0         -1      )
                  (    -1          0          0      )
                  (     0         -1          0      )

 cart.    s(10) = (  0.5000000 -0.8660254 -0.0000000 )
                  (  0.8660254  0.5000000  0.0000000 )
                  (  0.0000000  0.0000000 -1.0000000 )


      isym = 11     inv. 180 deg rotation - cryst. axis [0,1,0]  

 cryst.   s(11) = (     0          1          0      )    f =( -0.5000000 )
                  (     1          0          0      )       ( -0.5000000 )
                  (     0          0          1      )       ( -0.5000000 )

 cart.    s(11) = (  0.5000000  0.8660254  0.0000000 )    f =(  0.0000000 )
                  (  0.8660254 -0.5000000 -0.0000000 )       (  0.0000000 )
                  (  0.0000000  0.0000000  1.0000000 )       ( -1.2665443 )


      isym = 12     inv. 180 deg rotation - cryst. axis [1,1,0]  

 cryst.   s(12) = (     1          0          0      )    f =( -0.5000000 )
                  (     0          0          1      )       ( -0.5000000 )
                  (     0          1          0      )       ( -0.5000000 )

 cart.    s(12) = (  0.5000000 -0.8660254 -0.0000000 )    f =( -0.0000000 )
                  ( -0.8660254 -0.5000000 -0.0000000 )       (  0.0000000 )
                  (  0.0000000  0.0000000  1.0000000 )       ( -1.2665443 )


     double point group D_3d (-3m) 
     there are 12 classes and  6 irreducible representations
     the character table:

       E     -E    2C3   -2C3  3C2'  -3C2' i     -i    2S6   -2S6  3s_v  -3s_v
                                                                              
G_4+   2.00 -2.00  1.00 -1.00  0.00  0.00  2.00 -2.00  1.00 -1.00  0.00  0.00
G_5+   1.00 -1.00 -1.00  1.00  0.00  0.00  1.00 -1.00 -1.00  1.00  0.00  0.00
G_6+   1.00 -1.00 -1.00  1.00  0.00  0.00  1.00 -1.00 -1.00  1.00  0.00  0.00
G_4-   2.00 -2.00  1.00 -1.00  0.00  0.00 -2.00  2.00 -1.00  1.00  0.00  0.00
G_5-   1.00 -1.00 -1.00  1.00  0.00  0.00 -1.00  1.00  1.00 -1.00  0.00  0.00
G_6-   1.00 -1.00 -1.00  1.00  0.00  0.00 -1.00  1.00  1.00 -1.00  0.00  0.00

     imaginary part

       E     -E    2C3   -2C3  3C2'  -3C2' i     -i    2S6   -2S6  3s_v  -3s_v
                                                                              
G_4+   0.00  0.00  0.00  0.00  0.00  0.00  0.00  0.00  0.00  0.00  0.00  0.00
G_5+   0.00  0.00  0.00  0.00  1.00 -1.00  0.00  0.00  0.00  0.00  1.00 -1.00
G_6+   0.00  0.00  0.00  0.00 -1.00  1.00  0.00  0.00  0.00  0.00 -1.00  1.00
G_4-   0.00  0.00  0.00  0.00  0.00  0.00  0.00  0.00  0.00  0.00  0.00  0.00
G_5-   0.00  0.00  0.00  0.00  1.00 -1.00  0.00  0.00  0.00  0.00 -1.00  1.00
G_6-   0.00  0.00  0.00  0.00 -1.00  1.00  0.00  0.00  0.00  0.00  1.00 -1.00

     the symmetry operations in each class and the name of the first element:

     E             1
          identity                                               
     -E           -1
          identity E                                             
     2C3           3    4
          120 deg rotation - cryst. axis [0,0,1]                 
     -2C3         -3   -4
          120 deg rotation - cryst. axis [0,0,1] E               
     3C2'          2   -5   -6
          180 deg rotation - cart. axis [1,0,0]                  
     3C2'          5    6   -2
          180 deg rotation - cryst. axis [0,1,0]                 
     i             7
          inversion                                              
     -i           -7
          inversion E                                            
     2S6           9   10
          inv. 120 deg rotation - cryst. axis [0,0,1]            
     -2S6         -9  -10
          inv. 120 deg rotation - cryst. axis [0,0,1] E          
     3s_v          8  -11  -12
          inv. 180 deg rotation - cart. axis [1,0,0]             
     3s_v         11   12   -8
          inv. 180 deg rotation - cryst. axis [0,1,0]            

   Cartesian axes

     site n.     atom                  positions (alat units)
         1           Al  tau(   1) = (   0.0000000  -0.0000000   0.3727618  )
         2           Al  tau(   2) = (   0.0000000  -0.0000000   0.8937825  )
         3           Al  tau(   3) = (   0.0000000  -0.0000000   1.6393062  )
         4           Al  tau(   4) = (   0.0000000  -0.0000000   2.1603268  )
         5           O   tau(   5) = (  -0.1807109   0.2678859   1.0554536  )
         6           O   tau(   6) = (  -0.3223514  -0.0225573   1.4776350  )
         7           O   tau(   7) = (  -0.1416405  -0.2904432   1.0554536  )
         8           O   tau(   8) = (   0.1416405   0.2904432   1.4776350  )
         9           O   tau(   9) = (   0.3223514   0.0225573   1.0554536  )
        10           O   tau(  10) = (   0.1807109  -0.2678859   1.4776350  )

   Crystallographic axes

     site n.     atom                  positions (cryst. coord.)
         1           Al  tau(   1) = (  0.1471570  0.1471570  0.1471570  )
         2           Al  tau(   2) = (  0.3528430  0.3528430  0.3528430  )
         3           Al  tau(   3) = (  0.6471570  0.6471570  0.6471570  )
         4           Al  tau(   4) = (  0.8528430  0.8528430  0.8528430  )
         5           O   tau(   5) = (  0.0552650  0.7500000  0.4447350  )
         6           O   tau(   6) = (  0.2500000  0.5552650  0.9447350  )
         7           O   tau(   7) = (  0.4447350  0.0552650  0.7500000  )
         8           O   tau(   8) = (  0.5552650  0.9447350  0.2500000  )
         9           O   tau(   9) = (  0.7500000  0.4447350  0.0552650  )
        10           O   tau(  10) = (  0.9447350  0.2500000  0.5552650  )

     number of k points=    13
                       cart. coord. in units 2pi/alat
        k(    1) = (   0.0000000   0.0000000   0.0000000), wk =   0.0156250
        k(    2) = (  -0.2694012  -0.1555389   0.0986937), wk =   0.0937500
        k(    3) = (   0.5388025   0.3110778  -0.1973875), wk =   0.0468750
        k(    4) = (  -0.2694012   0.1555389   0.1973875), wk =   0.0937500
        k(    5) = (   0.5388025   0.6221555  -0.0986937), wk =   0.1875000
        k(    6) = (   0.2694012   0.4666166   0.0000000), wk =   0.0937500
        k(    7) = (   0.5388025  -0.3110778  -0.3947750), wk =   0.0468750
        k(    8) = (   0.0000000   0.0000000   0.2960812), wk =   0.0312500
        k(    9) = (   0.8082037   0.4666166   0.0000000), wk =   0.0937500
        k(   10) = (   0.5388025   0.3110778   0.0986937), wk =   0.0937500
        k(   11) = (   0.8082037  -0.4666166  -0.2960812), wk =   0.0937500
        k(   12) = (   0.5388025  -0.6221555  -0.1973875), wk =   0.0937500
        k(   13) = (   0.0000000   0.0000000  -0.5921625), wk =   0.0156250

                       cryst. coord.
        k(    1) = (   0.0000000   0.0000000   0.0000000), wk =   0.0156250
        k(    2) = (   0.0000000   0.0000000   0.2500000), wk =   0.0937500
        k(    3) = (   0.0000000   0.0000000  -0.5000000), wk =   0.0468750
        k(    4) = (   0.0000000   0.2500000   0.2500000), wk =   0.0937500
        k(    5) = (  -0.0000000   0.2500000  -0.5000000), wk =   0.1875000
        k(    6) = (  -0.0000000   0.2500000  -0.2500000), wk =   0.0937500
        k(    7) = (  -0.0000000  -0.5000000  -0.5000000), wk =   0.0468750
        k(    8) = (   0.2500000   0.2500000   0.2500000), wk =   0.0312500
        k(    9) = (   0.2500000   0.2500000  -0.5000000), wk =   0.0937500
        k(   10) = (   0.2500000   0.2500000  -0.2500000), wk =   0.0937500
        k(   11) = (   0.2500000  -0.5000000  -0.5000000), wk =   0.0937500
        k(   12) = (   0.2500000  -0.5000000  -0.2500000), wk =   0.0937500
        k(   13) = (  -0.5000000  -0.5000000  -0.5000000), wk =   0.0156250

     Dense  grid:     9211 G-vectors     FFT dimensions: (  32,  32,  32)

     Smooth grid:     2741 G-vectors     FFT dimensions: (  24,  24,  24)

     Dynamical RAM for                 wfc:       0.54 MB

     Dynamical RAM for     wfc (w. buffer):       7.58 MB

     Dynamical RAM for           str. fact:       0.28 MB

     Dynamical RAM for           local pot:       0.00 MB

     Dynamical RAM for          nlocal pot:       0.59 MB

     Dynamical RAM for                qrad:       1.74 MB

     Dynamical RAM for          rho,v,vnew:       4.69 MB

     Dynamical RAM for               rhoin:       1.56 MB

     Dynamical RAM for            rho*nmix:       9.00 MB

     Dynamical RAM for           G-vectors:       0.55 MB

     Dynamical RAM for          h,s,v(r/c):       1.98 MB

     Dynamical RAM for          <psi|beta>:       0.18 MB

     Dynamical RAM for                 psi:       2.16 MB

     Dynamical RAM for                hpsi:       2.16 MB

     Dynamical RAM for                spsi:       2.16 MB

     Dynamical RAM for      wfcinit/wfcrot:       1.40 MB

     Dynamical RAM for           addusdens:      15.74 MB

     Estimated static dynamical RAM per process >      28.40 MB

     Estimated max dynamical RAM per process >      44.15 MB

     Initial potential from superposition of free atoms

     starting charge   47.99122, renormalised to   48.00000
     Starting wfcs are   80 randomized atomic wfcs

     total cpu time spent up to now is        1.7 secs

     Self-consistent Calculation

     iteration #  1     ecut=    50.00 Ry     beta= 0.70
     Davidson diagonalization with overlap
     ethr =  1.00E-02,  avg # of iterations =  4.5

     total cpu time spent up to now is        3.6 secs

     total energy              =    -113.51996032 Ry
     Harris-Foulkes estimate   =    -120.52738533 Ry
     estimated scf accuracy    <      11.36343958 Ry

     iteration #  2     ecut=    50.00 Ry     beta= 0.70
     Davidson diagonalization with overlap
     ethr =  1.00E-02,  avg # of iterations =  2.0

     total cpu time spent up to now is        5.1 secs

     total energy              =    -114.59888484 Ry
     Harris-Foulkes estimate   =    -114.72100614 Ry
     estimated scf accuracy    <       0.25600406 Ry

     iteration #  3     ecut=    50.00 Ry     beta= 0.70
     Davidson diagonalization with overlap
     ethr =  5.33E-04,  avg # of iterations =  1.2

     total cpu time spent up to now is        6.1 secs

     total energy              =    -114.60360447 Ry
     Harris-Foulkes estimate   =    -114.60745062 Ry
     estimated scf accuracy    <       0.00973143 Ry

     iteration #  4     ecut=    50.00 Ry     beta= 0.70
     Davidson diagonalization with overlap
     ethr =  2.03E-05,  avg # of iterations =  2.8

     total cpu time spent up to now is        7.3 secs

     total energy              =    -114.60422634 Ry
     Harris-Foulkes estimate   =    -114.60430290 Ry
     estimated scf accuracy    <       0.00014569 Ry

     iteration #  5     ecut=    50.00 Ry     beta= 0.70
     Davidson diagonalization with overlap
     ethr =  3.04E-07,  avg # of iterations =  2.1

     total cpu time spent up to now is        8.6 secs

     total energy              =    -114.60425724 Ry
     Harris-Foulkes estimate   =    -114.60425869 Ry
     estimated scf accuracy    <       0.00000259 Ry

     iteration #  6     ecut=    50.00 Ry     beta= 0.70
     Davidson diagonalization with overlap
     ethr =  5.40E-09,  avg # of iterations =  2.0

     total cpu time spent up to now is       10.2 secs

     End of self-consistent calculation

          k = 0.0000 0.0000 0.0000 (   339 PWs)   bands (ev):

    50.5398  50.5398  50.5398  50.5398  51.1372  51.1372  53.6682  53.6682
    66.1065  66.1065  66.1065  66.1065  68.1959  68.1959  68.1959  68.1959
    73.2511  73.2511  77.6349  77.6349  80.3053  80.3053  80.3053  80.3053
    83.9974  83.9974  83.9974  83.9974  86.1478  86.1478  86.4057  86.4057
    86.4057  86.4057  89.1162  89.1162  91.4231  91.4231  91.4231  91.4231
    92.1282  92.1282  99.2653  99.2653  99.2653  99.2653  99.4971  99.4971
   111.6721 111.6721 129.8329 129.8329

     occupation numbers 
     1.0000   1.0000   1.0000   1.0000   1.0000   1.0000   1.0000   1.0000
     1.0000   1.0000   1.0000   1.0000   1.0000   1.0000   1.0000   1.0000
     1.0000   1.0000   1.0000   1.0000   1.0000   1.0000   1.0000   1.0000
     1.0000   1.0000   1.0000   1.0000   1.0000   1.0000   1.0000   1.0000
     1.0000   1.0000   1.0000   1.0000   1.0000   1.0000   1.0000   1.0000
     1.0000   1.0000   1.0000   1.0000   1.0000   1.0000   1.0000   1.0000
     0.0000   0.0000   0.0000   0.0000

          k =-0.2694-0.1555 0.0987 (   335 PWs)   bands (ev):

    50.5875  50.5875  51.3211  51.3211  54.7824  54.7824  56.6534  56.6534
    65.5499  65.5499  65.9839  65.9839  67.3584  67.3584  67.3937  67.3937
    71.0569  71.0569  75.6978  75.6978  77.6345  77.6345  79.3746  79.3746
    81.9958  81.9958  82.9904  82.9904  86.6241  86.6241  87.2078  87.2078
    87.2414  87.2414  89.3633  89.3633  89.4616  89.4616  92.0553  92.0553
    92.8822  92.8822  95.4505  95.4505  97.5450  97.5450  97.6478  97.6478
   113.5378 113.5378 117.3741 117.3741

     occupation numbers 
     1.0000   1.0000   1.0000   1.0000   1.0000   1.0000   1.0000   1.0000
     1.0000   1.0000   1.0000   1.0000   1.0000   1.0000   1.0000   1.0000
     1.0000   1.0000   1.0000   1.0000   1.0000   1.0000   1.0000   1.0000
     1.0000   1.0000   1.0000   1.0000   1.0000   1.0000   1.0000   1.0000
     1.0000   1.0000   1.0000   1.0000   1.0000   1.0000   1.0000   1.0000
     1.0000   1.0000   1.0000   1.0000   1.0000   1.0000   1.0000   1.0000
     0.0000   0.0000   0.0000   0.0000

          k = 0.5388 0.3111-0.1974 (   354 PWs)   bands (ev):

    51.5672  51.5672  51.5672  51.5672  62.1523  62.1523  62.1523  62.1523
    63.0408  63.0408  63.0408  63.0408  66.0153  66.0153  66.0153  66.0153
    72.4984  72.4984  72.4984  72.4984  74.8684  74.8684  74.8684  74.8684
    82.1452  82.1452  82.1452  82.1452  86.7941  86.7941  86.7941  86.7941
    87.7989  87.7989  87.7989  87.7989  91.8733  91.8733  91.8733  91.8733
    92.8153  92.8153  92.8153  92.8153  95.2316  95.2316  95.2316  95.2316
   112.3809 112.3809 112.3809 112.3809

     occupation numbers 
     1.0000   1.0000   1.0000   1.0000   1.0000   1.0000   1.0000   1.0000
     1.0000   1.0000   1.0000   1.0000   1.0000   1.0000   1.0000   1.0000
     1.0000   1.0000   1.0000   1.0000   1.0000   1.0000   1.0000   1.0000
     1.0000   1.0000   1.0000   1.0000   1.0000   1.0000   1.0000   1.0000
     1.0000   1.0000   1.0000   1.0000   1.0000   1.0000   1.0000   1.0000
     1.0000   1.0000   1.0000   1.0000   1.0000   1.0000   1.0000   1.0000
     0.0000   0.0000   0.0000   0.0000

          k =-0.2694 0.1555 0.1974 (   336 PWs)   bands (ev):

    49.8517  49.8517  52.9098  52.9098  53.8802  53.8802  57.2755  57.2755
    63.9899  63.9899  65.1636  65.1636  67.7763  67.7763  68.9891  68.9891
    71.3399  71.3399  75.6215  75.6215  76.1397  76.1397  78.2304  78.2304
    82.0316  82.0316  83.8785  83.8785  86.0740  86.0740  87.1360  87.1360
    88.1296  88.1296  88.1632  88.1632  89.9784  89.9784  90.7764  90.7764
    92.9594  92.9594  95.9632  95.9632  96.2998  96.2998  97.4097  97.4097
   115.1914 115.1914 116.5829 116.5829

     occupation numbers 
     1.0000   1.0000   1.0000   1.0000   1.0000   1.0000   1.0000   1.0000
     1.0000   1.0000   1.0000   1.0000   1.0000   1.0000   1.0000   1.0000
     1.0000   1.0000   1.0000   1.0000   1.0000   1.0000   1.0000   1.0000
     1.0000   1.0000   1.0000   1.0000   1.0000   1.0000   1.0000   1.0000
     1.0000   1.0000   1.0000   1.0000   1.0000   1.0000   1.0000   1.0000
     1.0000   1.0000   1.0000   1.0000   1.0000   1.0000   1.0000   1.0000
     0.0000   0.0000   0.0000   0.0000

          k = 0.5388 0.6222-0.0987 (   346 PWs)   bands (ev):

    50.2605  50.2605  51.7856  51.7856  59.2765  59.2765  61.6960  61.6960
    63.7141  63.7141  64.0115  64.0115  66.0662  66.0662  69.0190  69.0190
    72.2511  72.2511  73.6822  73.6822  74.8747  74.8747  77.7157  77.7157
    80.5471  80.5471  81.7727  81.7727  83.4700  83.4700  85.6571  85.6571
    87.5201  87.5201  88.1908  88.1908  90.6338  90.6338  91.6501  91.6501
    92.4274  92.4274  93.7776  93.7776  95.2102  95.2102  95.8538  95.8538
   109.9859 109.9859 111.1086 111.1086

     occupation numbers 
     1.0000   1.0000   1.0000   1.0000   1.0000   1.0000   1.0000   1.0000
     1.0000   1.0000   1.0000   1.0000   1.0000   1.0000   1.0000   1.0000
     1.0000   1.0000   1.0000   1.0000   1.0000   1.0000   1.0000   1.0000
     1.0000   1.0000   1.0000   1.0000   1.0000   1.0000   1.0000   1.0000
     1.0000   1.0000   1.0000   1.0000   1.0000   1.0000   1.0000   1.0000
     1.0000   1.0000   1.0000   1.0000   1.0000   1.0000   1.0000   1.0000
     0.0000   0.0000   0.0000   0.0000

          k = 0.2694 0.4666 0.0000 (   339 PWs)   bands (ev):

    50.2622  50.2622  51.8854  51.8854  58.8654  58.8654  60.3503  60.3503
    65.0470  65.0470  65.1259  65.1259  67.0214  67.0214  68.3608  68.3608
    69.3914  69.3914  73.9887  73.9887  77.7001  77.7001  78.0208  78.0208
    79.6283  79.6283  82.6118  82.6118  84.4601  84.4601  85.5139  85.5139
    87.6618  87.6618  87.6837  87.6837  91.5462  91.5462  91.9787  91.9787
    92.7581  92.7581  94.0487  94.0487  94.0815  94.0815  96.4304  96.4304
   108.8845 108.8845 112.2136 112.2136

     occupation numbers 
     1.0000   1.0000   1.0000   1.0000   1.0000   1.0000   1.0000   1.0000
     1.0000   1.0000   1.0000   1.0000   1.0000   1.0000   1.0000   1.0000
     1.0000   1.0000   1.0000   1.0000   1.0000   1.0000   1.0000   1.0000
     1.0000   1.0000   1.0000   1.0000   1.0000   1.0000   1.0000   1.0000
     1.0000   1.0000   1.0000   1.0000   1.0000   1.0000   1.0000   1.0000
     1.0000   1.0000   1.0000   1.0000   1.0000   1.0000   1.0000   1.0000
     0.0000   0.0000   0.0000   0.0000

          k = 0.5388-0.3111-0.3948 (   332 PWs)   bands (ev):

    48.9597  48.9597  54.4797  54.4797  55.6946  55.6946  61.3757  61.3757
    62.4541  62.4541  64.8746  64.8746  68.0966  68.0966  68.8573  68.8573
    73.4936  73.4936  74.0565  74.0565  76.4226  76.4226  76.7756  76.7756
    77.6421  77.6421  80.9979  80.9979  83.9885  83.9885  86.4700  86.4700
    86.7083  86.7083  89.4529  89.4529  90.0194  90.0194  90.8216  90.8216
    91.8438  91.8438  93.3932  93.3932  95.1966  95.1966  95.8780  95.8780
   108.3695 108.3695 119.5186 119.5186

     occupation numbers 
     1.0000   1.0000   1.0000   1.0000   1.0000   1.0000   1.0000   1.0000
     1.0000   1.0000   1.0000   1.0000   1.0000   1.0000   1.0000   1.0000
     1.0000   1.0000   1.0000   1.0000   1.0000   1.0000   1.0000   1.0000
     1.0000   1.0000   1.0000   1.0000   1.0000   1.0000   1.0000   1.0000
     1.0000   1.0000   1.0000   1.0000   1.0000   1.0000   1.0000   1.0000
     1.0000   1.0000   1.0000   1.0000   1.0000   1.0000   1.0000   1.0000
     0.0000   0.0000   0.0000   0.0000

          k = 0.0000 0.0000 0.2961 (   348 PWs)   bands (ev):

    51.2626  51.2626  52.8030  52.8030  52.8030  52.8030  54.3045  54.3045
    64.9546  64.9546  64.9546  64.9546  66.7063  66.7063  66.7063  66.7063
    73.0167  73.0167  74.6690  74.6690  76.1778  76.1778  76.1778  76.1778
    84.8321  84.8321  84.8321  84.8321  87.6001  87.6001  88.1045  88.1045
    88.1045  88.1045  89.7010  89.7010  90.0250  90.0250  90.0250  90.0250
    92.3827  92.3827  95.0954  95.0954  97.4207  97.4207  97.4207  97.4207
   118.0246 118.0246 128.4394 128.4394

     occupation numbers 
     1.0000   1.0000   1.0000   1.0000   1.0000   1.0000   1.0000   1.0000
     1.0000   1.0000   1.0000   1.0000   1.0000   1.0000   1.0000   1.0000
     1.0000   1.0000   1.0000   1.0000   1.0000   1.0000   1.0000   1.0000
     1.0000   1.0000   1.0000   1.0000   1.0000   1.0000   1.0000   1.0000
     1.0000   1.0000   1.0000   1.0000   1.0000   1.0000   1.0000   1.0000
     1.0000   1.0000   1.0000   1.0000   1.0000   1.0000   1.0000   1.0000
     0.0000   0.0000   0.0000   0.0000

          k = 0.8082 0.4666 0.0000 (   348 PWs)   bands (ev):

    51.4064  51.4064  52.1170  52.1170  58.0685  58.0685  58.6487  58.6487
    60.2582  60.2582  64.9384  64.9384  66.5062  66.5062  68.9404  68.9404
    71.4512  71.4512  72.8915  72.8915  74.0142  74.0142  75.8675  75.8675
    80.9286  80.9286  85.7134  85.7134  86.1850  86.1850  87.5904  87.5904
    88.1810  88.1810  88.9978  88.9978  90.8828  90.8828  91.5494  91.5494
    91.6145  91.6145  92.8152  92.8152  93.7267  93.7267  96.3776  96.3776
   118.6930 118.6930 121.5012 121.5012

     occupation numbers 
     1.0000   1.0000   1.0000   1.0000   1.0000   1.0000   1.0000   1.0000
     1.0000   1.0000   1.0000   1.0000   1.0000   1.0000   1.0000   1.0000
     1.0000   1.0000   1.0000   1.0000   1.0000   1.0000   1.0000   1.0000
     1.0000   1.0000   1.0000   1.0000   1.0000   1.0000   1.0000   1.0000
     1.0000   1.0000   1.0000   1.0000   1.0000   1.0000   1.0000   1.0000
     1.0000   1.0000   1.0000   1.0000   1.0000   1.0000   1.0000   1.0000
     0.0000   0.0000   0.0000   0.0000

          k = 0.5388 0.3111 0.0987 (   341 PWs)   bands (ev):

    49.7673  49.7673  53.2511  53.2511  58.1105  58.1105  61.3655  61.3655
    63.2097  63.2097  65.5076  65.5076  66.0503  66.0503  68.5212  68.5212
    71.8157  71.8157  74.1976  74.1976  74.3632  74.3632  76.5383  76.5383
    79.2623  79.2623  83.6435  83.6435  84.2201  84.2201  87.0578  87.0578
    87.0602  87.0602  88.5951  88.5951  89.5375  89.5375  91.6539  91.6539
    91.7029  91.7029  93.9662  93.9662  94.3986  94.3986  95.5778  95.5778
   109.1334 109.1334 116.6307 116.6307

     occupation numbers 
     1.0000   1.0000   1.0000   1.0000   1.0000   1.0000   1.0000   1.0000
     1.0000   1.0000   1.0000   1.0000   1.0000   1.0000   1.0000   1.0000
     1.0000   1.0000   1.0000   1.0000   1.0000   1.0000   1.0000   1.0000
     1.0000   1.0000   1.0000   1.0000   1.0000   1.0000   1.0000   1.0000
     1.0000   1.0000   1.0000   1.0000   1.0000   1.0000   1.0000   1.0000
     1.0000   1.0000   1.0000   1.0000   1.0000   1.0000   1.0000   1.0000
     0.0000   0.0000   0.0000   0.0000

          k = 0.8082-0.4666-0.2961 (   344 PWs)   bands (ev):

    50.8727  50.8727  53.8308  53.8308  55.2574  55.2574  60.6220  60.6220
    60.9123  60.9123  64.0864  64.0864  65.3093  65.3093  70.9962  70.9962
    71.3541  71.3541  72.9637  72.9637  73.0032  73.0032  75.1360  75.1360
    81.6496  81.6496  82.6559  82.6559  86.6069  86.6069  86.8686  86.8686
    88.6199  88.6199  89.4170  89.4170  90.8875  90.8875  91.5019  91.5019
    91.9734  91.9734  92.7320  92.7320  93.6856  93.6856  95.0670  95.0670
   116.8231 116.8231 119.9767 119.9767

     occupation numbers 
     1.0000   1.0000   1.0000   1.0000   1.0000   1.0000   1.0000   1.0000
     1.0000   1.0000   1.0000   1.0000   1.0000   1.0000   1.0000   1.0000
     1.0000   1.0000   1.0000   1.0000   1.0000   1.0000   1.0000   1.0000
     1.0000   1.0000   1.0000   1.0000   1.0000   1.0000   1.0000   1.0000
     1.0000   1.0000   1.0000   1.0000   1.0000   1.0000   1.0000   1.0000
     1.0000   1.0000   1.0000   1.0000   1.0000   1.0000   1.0000   1.0000
     0.0000   0.0000   0.0000   0.0000

          k = 0.5388-0.6222-0.1974 (   340 PWs)   bands (ev):

    50.9338  50.9338  50.9338  50.9338  60.4486  60.4486  60.4486  60.4486
    64.2673  64.2673  64.2673  64.2673  67.1556  67.1556  67.1556  67.1556
    74.2963  74.2963  74.2963  74.2963  75.6334  75.6334  75.6334  75.6334
    78.8324  78.8324  78.8324  78.8324  84.1738  84.1738  84.1738  84.1738
    89.0250  89.0250  89.0250  89.0250  90.8385  90.8385  90.8385  90.8385
    92.6089  92.6089  92.6089  92.6089  95.0260  95.0260  95.0260  95.0260
   111.1051 111.1051 111.1051 111.1051

     occupation numbers 
     1.0000   1.0000   1.0000   1.0000   1.0000   1.0000   1.0000   1.0000
     1.0000   1.0000   1.0000   1.0000   1.0000   1.0000   1.0000   1.0000
     1.0000   1.0000   1.0000   1.0000   1.0000   1.0000   1.0000   1.0000
     1.0000   1.0000   1.0000   1.0000   1.0000   1.0000   1.0000   1.0000
     1.0000   1.0000   1.0000   1.0000   1.0000   1.0000   1.0000   1.0000
     1.0000   1.0000   1.0000   1.0000   1.0000   1.0000   1.0000   1.0000
     0.0000   0.0000   0.0000   0.0000

          k = 0.0000 0.0000-0.5922 (   344 PWs)   bands (ev):

    53.0803  53.0803  53.0803  53.0803  58.4547  58.4547  58.4547  58.4547
    58.4547  58.4547  58.4547  58.4547  70.3393  70.3393  70.3393  70.3393
    70.3393  70.3393  70.3393  70.3393  72.4039  72.4039  72.4039  72.4039
    85.8885  85.8885  85.8885  85.8885  85.8885  85.8885  85.8885  85.8885
    90.5925  90.5925  90.5925  90.5925  91.4151  91.4151  91.4151  91.4151
    92.9550  92.9550  92.9550  92.9550  92.9550  92.9550  92.9550  92.9550
   122.1695 122.1695 122.1695 122.1695

     occupation numbers 
     1.0000   1.0000   1.0000   1.0000   1.0000   1.0000   1.0000   1.0000
     1.0000   1.0000   1.0000   1.0000   1.0000   1.0000   1.0000   1.0000
     1.0000   1.0000   1.0000   1.0000   1.0000   1.0000   1.0000   1.0000
     1.0000   1.0000   1.0000   1.0000   1.0000   1.0000   1.0000   1.0000
     1.0000   1.0000   1.0000   1.0000   1.0000   1.0000   1.0000   1.0000
     1.0000   1.0000   1.0000   1.0000   1.0000   1.0000   1.0000   1.0000
     0.0000   0.0000   0.0000   0.0000

     highest occupied, lowest unoccupied level (ev):    99.4971  108.3695

!    total energy              =    -114.60425749 Ry
     Harris-Foulkes estimate   =    -114.60425753 Ry
     estimated scf accuracy    <       0.00000007 Ry

     The total energy is the sum of the following terms:

     one-electron contribution =     348.62619730 Ry
     hartree contribution      =      16.99488793 Ry
     xc contribution           =    -100.25687381 Ry
     ewald contribution        =    -379.96846890 Ry

     convergence has been achieved in   6 iterations

     Writing output data file pwscf.save\

     init_run     :      1.78s CPU      1.56s WALL (       1 calls)
     electrons    :     11.16s CPU      8.45s WALL (       1 calls)

     Called by init_run:
     wfcinit      :      1.05s CPU      0.61s WALL (       1 calls)
     wfcinit:atom :      0.02s CPU      0.00s WALL (      13 calls)
     wfcinit:wfcr :      0.95s CPU      0.50s WALL (      13 calls)
     potinit      :      0.02s CPU      0.02s WALL (       1 calls)
     hinit0       :      0.66s CPU      0.87s WALL (       1 calls)

     Called by electrons:
     c_bands      :      9.80s CPU      6.39s WALL (       6 calls)
     sum_band     :      1.16s CPU      1.80s WALL (       6 calls)
     v_of_rho     :      0.02s CPU      0.03s WALL (       7 calls)
     v_h          :      0.02s CPU      0.02s WALL (       7 calls)
     v_xc         :      0.00s CPU      0.02s WALL (       7 calls)
     newd         :      0.22s CPU      0.27s WALL (       7 calls)
     mix_rho      :      0.00s CPU      0.00s WALL (       6 calls)

     Called by c_bands:
     init_us_2    :      0.06s CPU      0.11s WALL (     169 calls)
     cegterg      :      9.53s CPU      6.08s WALL (      78 calls)

     Called by sum_band:
     sum_band:bec :      0.03s CPU      0.08s WALL (      78 calls)
     addusdens    :      0.14s CPU      0.27s WALL (       6 calls)

     Called by *egterg:
     h_psi        :      7.98s CPU      4.48s WALL (     281 calls)
     s_psi        :      0.48s CPU      0.33s WALL (     281 calls)
     g_psi        :      0.02s CPU      0.02s WALL (     190 calls)
     cdiaghg      :      1.16s CPU      1.02s WALL (     268 calls)
     cegterg:over :      0.31s CPU      0.25s WALL (     190 calls)
     cegterg:upda :      0.14s CPU      0.16s WALL (     190 calls)
     cegterg:last :      0.03s CPU      0.03s WALL (      78 calls)

     Called by h_psi:
     h_psi:pot    :      7.95s CPU      4.45s WALL (     281 calls)
     h_psi:calbec :      0.91s CPU      0.30s WALL (     281 calls)
     vloc_psi     :      6.27s CPU      3.88s WALL (     281 calls)
     add_vuspsi   :      0.78s CPU      0.27s WALL (     281 calls)

     General routines
     calbec       :      0.95s CPU      0.34s WALL (     359 calls)
     fft          :      0.00s CPU      0.02s WALL (      94 calls)
     ffts         :      0.00s CPU      0.00s WALL (      52 calls)
     fftw         :      3.91s CPU      2.97s WALL (   54380 calls)
     interpolate  :      0.00s CPU      0.00s WALL (      28 calls)

     Parallel routines

     PWSCF        :     13.30s CPU     10.43s WALL


   This run was terminated on:   3:57: 2  15Jan2023            

=------------------------------------------------------------------------------=
   JOB DONE.
=------------------------------------------------------------------------------=
