
     Program PWSCF v.6.4.1 starts on 14Jan2023 at 18: 0:42 

     This program is part of the open-source Quantum ESPRESSO suite
     for quantum simulation of materials; please cite
         "P. Giannozzi et al., J. Phys.:Condens. Matter 21 395502 (2009);
         "P. Giannozzi et al., J. Phys.:Condens. Matter 29 465901 (2017);
          URL http://www.quantum-espresso.org", 
     in publications or presentations arising from this work. More details at
     http://www.quantum-espresso.org/quote

     Parallel version (MPI & OpenMP), running on       8 processor cores
     Number of MPI processes:                 1
     Threads/MPI process:                     8

     MPI processes distributed on     1 nodes
     Waiting for input...
     Reading input from standard input

     Current dimensions of program PWSCF are:
     Max number of different atomic species (ntypx) = 10
     Max number of k-points (npk) =  40000
     Max angular momentum in pseudopotentials (lmaxx) =  3
     Message from routine setup:
     At least one non s.o. pseudo

     Subspace diagonalization in iterative solution of the eigenvalue problem:
     a serial algorithm will be used


     G-vector sticks info
     --------------------
     sticks:   dense  smooth     PW     G-vecs:    dense   smooth      PW
     Sum        1533    1533    437                44713    44713    7075



     bravais-lattice index     =            5
     lattice parameter (alat)  =       9.7850  a.u.
     unit-cell volume          =     936.8774 (a.u.)^3
     number of atoms/cell      =           10
     number of atomic types    =            2
     number of electrons       =        48.00
     number of Kohn-Sham states=           48
     kinetic-energy cutoff     =      50.0000  Ry
     charge density cutoff     =     200.0000  Ry
     convergence threshold     =      1.0E-06
     mixing beta               =       0.7000
     number of iterations used =            8  plain     mixing
     Exchange-correlation      = SLA  PZ   NOGX NOGC ( 1  1  0  0 0 0)
     Non magnetic calculation with spin-orbit


     celldm(1)=   9.785002  celldm(2)=   0.000000  celldm(3)=   0.000000
     celldm(4)=   0.000000  celldm(5)=   0.000000  celldm(6)=   0.000000

     crystal axes: (cart. coord. in units of alat)
               a(1) = (   0.707107  -0.408248   0.577350 )  
               a(2) = (   0.000000   0.816497   0.577350 )  
               a(3) = (  -0.707107  -0.408248   0.577350 )  

     reciprocal axes: (cart. coord. in units 2 pi/alat)
               b(1) = (  0.707107 -0.408248  0.577350 )  
               b(2) = (  0.000000  0.816497  0.577350 )  
               b(3) = ( -0.707107 -0.408248  0.577350 )  


     PseudoPot. # 1 for Al read from file:
     .\al_lda_v1.uspp.F.UPF
     MD5 check sum: 51a9e5980debfdd3404790b200e14add
     Pseudo is Ultrasoft + core correction, Zval =  3.0
     Generated by new atomic code, or converted to UPF format
     Using radial grid of  893 points,  3 beta functions with: 
                l(1) =   0
                l(2) =   1
                l(3) =   2
     Q(r) pseudized with  8 coefficients,  rinner =    0.900   0.900   0.900
                                                       0.900   0.900

     PseudoPot. # 2 for O  read from file:
     .\o_lda_v1.2.uspp.F.UPF
     MD5 check sum: 194b818514d2a7dbb603bb78519a4f40
     Pseudo is Ultrasoft + core correction, Zval =  6.0
     Generated by new atomic code, or converted to UPF format
     Using radial grid of  737 points,  5 beta functions with: 
                l(1) =   0
                l(2) =   0
                l(3) =   1
                l(4) =   1
                l(5) =   2
     Q(r) pseudized with  8 coefficients,  rinner =    0.900   0.900   0.900
                                                       0.900   0.900

     atomic species   valence    mass     pseudopotential
        Al             3.00    26.98154     Al( 1.00)
        O              6.00    15.99900     O ( 1.00)

     12 Sym. Ops., with inversion, found ( 6 have fractional translation)



   Cartesian axes

     site n.     atom                  positions (alat units)
         1           Al  tau(   1) = (   0.0000000  -0.0000000   0.2561703  )
         2           Al  tau(   2) = (   0.0000000  -0.0000000   0.6098551  )
         3           Al  tau(   3) = (   0.0000000  -0.0000000   1.1221957  )
         4           Al  tau(   4) = (   0.0000000  -0.0000000   1.4758805  )
         5           O   tau(   5) = (  -0.2742160   0.4082483   0.7216878  )
         6           O   tau(   6) = (  -0.4906614  -0.0333539   1.0103630  )
         7           O   tau(   7) = (  -0.2164454  -0.4416022   0.7216878  )
         8           O   tau(   8) = (   0.2164454   0.4416022   1.0103630  )
         9           O   tau(   9) = (   0.4906614   0.0333539   0.7216878  )
        10           O   tau(  10) = (   0.2742160  -0.4082483   1.0103630  )

     number of k points=    13
                       cart. coord. in units 2pi/alat
        k(    1) = (   0.0000000   0.0000000   0.0000000), wk =   0.0156250
        k(    2) = (  -0.1767767  -0.1020621   0.1443376), wk =   0.0937500
        k(    3) = (   0.3535534   0.2041241  -0.2886751), wk =   0.0468750
        k(    4) = (  -0.1767767   0.1020621   0.2886751), wk =   0.0937500
        k(    5) = (   0.3535534   0.4082483  -0.1443376), wk =   0.1875000
        k(    6) = (   0.1767767   0.3061862   0.0000000), wk =   0.0937500
        k(    7) = (   0.3535534  -0.2041241  -0.5773503), wk =   0.0468750
        k(    8) = (   0.0000000   0.0000000   0.4330127), wk =   0.0312500
        k(    9) = (   0.5303301   0.3061862   0.0000000), wk =   0.0937500
        k(   10) = (   0.3535534   0.2041241   0.1443376), wk =   0.0937500
        k(   11) = (   0.5303301  -0.3061862  -0.4330127), wk =   0.0937500
        k(   12) = (   0.3535534  -0.4082483  -0.2886751), wk =   0.0937500
        k(   13) = (   0.0000000   0.0000000  -0.8660254), wk =   0.0156250

     Dense  grid:    44713 G-vectors     FFT dimensions: (  48,  48,  48)

     Estimated max dynamical RAM per process >     308.30 MB

     Check: negative core charge=   -0.000002

     Initial potential from superposition of free atoms

     starting charge   47.99122, renormalised to   48.00000
     Starting wfcs are   80 randomized atomic wfcs

     total cpu time spent up to now is        6.9 secs

     Self-consistent Calculation

     iteration #  1     ecut=    50.00 Ry     beta= 0.70
     Davidson diagonalization with overlap
     ethr =  1.00E-02,  avg # of iterations =  2.0

     total cpu time spent up to now is       13.5 secs

     total energy              =    -217.05431835 Ry
     Harris-Foulkes estimate   =    -219.23631055 Ry
     estimated scf accuracy    <       2.80426697 Ry

     iteration #  2     ecut=    50.00 Ry     beta= 0.70
     Davidson diagonalization with overlap
     ethr =  5.84E-03,  avg # of iterations =  4.5

     total cpu time spent up to now is       25.4 secs

     total energy              =    -216.45179012 Ry
     Harris-Foulkes estimate   =    -222.01996322 Ry
     estimated scf accuracy    <      18.11096271 Ry

     iteration #  3     ecut=    50.00 Ry     beta= 0.70
     Davidson diagonalization with overlap
     ethr =  5.84E-03,  avg # of iterations =  4.5

     total cpu time spent up to now is       37.7 secs

     total energy              =    -218.68886962 Ry
     Harris-Foulkes estimate   =    -218.71126513 Ry
     estimated scf accuracy    <       0.09044746 Ry

     iteration #  4     ecut=    50.00 Ry     beta= 0.70
     Davidson diagonalization with overlap
     ethr =  1.88E-04,  avg # of iterations =  6.7

     total cpu time spent up to now is       46.9 secs

     total energy              =    -218.76058871 Ry
     Harris-Foulkes estimate   =    -218.76559002 Ry
     estimated scf accuracy    <       0.02172764 Ry

     iteration #  5     ecut=    50.00 Ry     beta= 0.70
     Davidson diagonalization with overlap
     ethr =  4.53E-05,  avg # of iterations =  2.5

     total cpu time spent up to now is       55.6 secs

     total energy              =    -218.76271114 Ry
     Harris-Foulkes estimate   =    -218.76654403 Ry
     estimated scf accuracy    <       0.01691517 Ry

     iteration #  6     ecut=    50.00 Ry     beta= 0.70
     Davidson diagonalization with overlap
     ethr =  3.52E-05,  avg # of iterations =  3.1

     total cpu time spent up to now is       63.8 secs

     total energy              =    -218.76343054 Ry
     Harris-Foulkes estimate   =    -218.76387275 Ry
     estimated scf accuracy    <       0.00372673 Ry

     iteration #  7     ecut=    50.00 Ry     beta= 0.70
     Davidson diagonalization with overlap
     ethr =  7.76E-06,  avg # of iterations =  7.0

     total cpu time spent up to now is       73.6 secs

     total energy              =    -218.77665772 Ry
     Harris-Foulkes estimate   =    -218.77703607 Ry
     estimated scf accuracy    <       0.00932705 Ry

     iteration #  8     ecut=    50.00 Ry     beta= 0.70
     Davidson diagonalization with overlap
     ethr =  7.76E-06,  avg # of iterations =  1.3

     total cpu time spent up to now is       80.6 secs

     total energy              =    -218.77975187 Ry
     Harris-Foulkes estimate   =    -218.77676171 Ry
     estimated scf accuracy    <       0.00758652 Ry

     iteration #  9     ecut=    50.00 Ry     beta= 0.70
     Davidson diagonalization with overlap
     ethr =  7.76E-06,  avg # of iterations =  1.3

     total cpu time spent up to now is       87.5 secs

     total energy              =    -218.78557268 Ry
     Harris-Foulkes estimate   =    -218.77991685 Ry
     estimated scf accuracy    <       0.01506986 Ry

     iteration # 10     ecut=    50.00 Ry     beta= 0.70
     Davidson diagonalization with overlap
     ethr =  7.76E-06,  avg # of iterations =  4.5

     total cpu time spent up to now is       96.9 secs

     total energy              =    -218.78464508 Ry
     Harris-Foulkes estimate   =    -218.78658995 Ry
     estimated scf accuracy    <       0.03813268 Ry

     iteration # 11     ecut=    50.00 Ry     beta= 0.70
     Davidson diagonalization with overlap
     ethr =  7.76E-06,  avg # of iterations =  1.0

     total cpu time spent up to now is      103.6 secs

     total energy              =    -218.77682407 Ry
     Harris-Foulkes estimate   =    -218.78467050 Ry
     estimated scf accuracy    <       0.03370589 Ry

     iteration # 12     ecut=    50.00 Ry     beta= 0.70
     Davidson diagonalization with overlap
     ethr =  7.76E-06,  avg # of iterations =  4.5

     total cpu time spent up to now is      113.3 secs

     total energy              =    -218.78542382 Ry
     Harris-Foulkes estimate   =    -218.77783935 Ry
     estimated scf accuracy    <       0.00946121 Ry

     iteration # 13     ecut=    50.00 Ry     beta= 0.70
     Davidson diagonalization with overlap
     ethr =  7.76E-06,  avg # of iterations =  4.8

     total cpu time spent up to now is      123.8 secs

     total energy              =    -218.77014261 Ry
     Harris-Foulkes estimate   =    -218.78651367 Ry
     estimated scf accuracy    <       0.03686359 Ry

     iteration # 14     ecut=    50.00 Ry     beta= 0.70
     Davidson diagonalization with overlap
     ethr =  7.76E-06,  avg # of iterations =  6.4

     total cpu time spent up to now is      137.6 secs

     total energy              =    -218.77486336 Ry
     Harris-Foulkes estimate   =    -218.77491035 Ry
     estimated scf accuracy    <       0.00031161 Ry

     iteration # 15     ecut=    50.00 Ry     beta= 0.70
     Davidson diagonalization with overlap
     ethr =  6.49E-07,  avg # of iterations =  4.4

     total cpu time spent up to now is      145.9 secs

     total energy              =    -218.77495376 Ry
     Harris-Foulkes estimate   =    -218.77493116 Ry
     estimated scf accuracy    <       0.00017042 Ry

     iteration # 16     ecut=    50.00 Ry     beta= 0.70
     Davidson diagonalization with overlap
     ethr =  3.55E-07,  avg # of iterations =  1.0

     total cpu time spent up to now is      153.1 secs

     total energy              =    -218.77494659 Ry
     Harris-Foulkes estimate   =    -218.77495704 Ry
     estimated scf accuracy    <       0.00021930 Ry

     iteration # 17     ecut=    50.00 Ry     beta= 0.70
     Davidson diagonalization with overlap
     ethr =  3.55E-07,  avg # of iterations =  1.0

     total cpu time spent up to now is      160.1 secs

     total energy              =    -218.77491065 Ry
     Harris-Foulkes estimate   =    -218.77494783 Ry
     estimated scf accuracy    <       0.00018672 Ry

     iteration # 18     ecut=    50.00 Ry     beta= 0.70
     Davidson diagonalization with overlap
     ethr =  3.55E-07,  avg # of iterations =  2.8

     total cpu time spent up to now is      167.5 secs

     total energy              =    -218.77494210 Ry
     Harris-Foulkes estimate   =    -218.77492225 Ry
     estimated scf accuracy    <       0.00005066 Ry

     iteration # 19     ecut=    50.00 Ry     beta= 0.70
     Davidson diagonalization with overlap
     ethr =  1.06E-07,  avg # of iterations =  3.1

     total cpu time spent up to now is      175.1 secs

     total energy              =    -218.77499819 Ry
     Harris-Foulkes estimate   =    -218.77494588 Ry
     estimated scf accuracy    <       0.00010676 Ry

     iteration # 20     ecut=    50.00 Ry     beta= 0.70
     Davidson diagonalization with overlap
     ethr =  1.06E-07,  avg # of iterations =  4.5

     total cpu time spent up to now is      185.7 secs

     total energy              =    -218.77498694 Ry
     Harris-Foulkes estimate   =    -218.77502276 Ry
     estimated scf accuracy    <       0.00048943 Ry

     iteration # 21     ecut=    50.00 Ry     beta= 0.70
     Davidson diagonalization with overlap
     ethr =  1.06E-07,  avg # of iterations =  1.0

     total cpu time spent up to now is      192.6 secs

     total energy              =    -218.77491483 Ry
     Harris-Foulkes estimate   =    -218.77498813 Ry
     estimated scf accuracy    <       0.00037956 Ry

     iteration # 22     ecut=    50.00 Ry     beta= 0.70
     Davidson diagonalization with overlap
     ethr =  1.06E-07,  avg # of iterations =  4.4

     total cpu time spent up to now is      202.7 secs

     total energy              =    -218.77489722 Ry
     Harris-Foulkes estimate   =    -218.77493094 Ry
     estimated scf accuracy    <       0.00009236 Ry

     iteration # 23     ecut=    50.00 Ry     beta= 0.70
     Davidson diagonalization with overlap
     ethr =  1.06E-07,  avg # of iterations =  4.2

     total cpu time spent up to now is      212.9 secs

     total energy              =    -218.77491236 Ry
     Harris-Foulkes estimate   =    -218.77491268 Ry
     estimated scf accuracy    <       0.00000147 Ry

     iteration # 24     ecut=    50.00 Ry     beta= 0.70
     Davidson diagonalization with overlap
     ethr =  3.07E-09,  avg # of iterations =  3.1

     total cpu time spent up to now is      221.4 secs

     End of self-consistent calculation

          k = 0.0000 0.0000 0.0000 (  5575 PWs)   bands (ev):

   -13.5298 -13.5298 -12.6032 -12.6032 -12.6032 -12.6032 -12.2714 -12.2714
   -12.2714 -12.2714 -11.9853 -11.9853  -3.3288  -3.3288  -1.8101  -1.8101
    -1.1837  -1.1837  -0.1808  -0.1808  -0.1808  -0.1808  -0.1241  -0.1241
    -0.1241  -0.1241   0.5383   0.5383   0.5383   0.5383   0.9971   0.9971
     1.3455   1.3455   1.3455   1.3455   2.0319   2.0319   2.4264   2.4264
     2.4264   2.4264   2.4311   2.4311   3.0193   3.0193   3.0193   3.0193

          k =-0.1768-0.1021 0.1443 (  5606 PWs)   bands (ev):

   -13.4120 -13.4120 -12.7682 -12.7682 -12.5394 -12.5394 -12.2876 -12.2876
   -12.2383 -12.2383 -12.0429 -12.0429  -3.2927  -3.2927  -2.2834  -2.2834
    -1.0662  -1.0662  -0.3007  -0.3007  -0.0358  -0.0358   0.0693   0.0693
     0.2768   0.2768   0.3380   0.3380   0.5456   0.5456   0.7267   0.7267
     1.5219   1.5219   1.9480   1.9480   2.2782   2.2782   2.2853   2.2853
     2.3606   2.3606   2.4701   2.4701   2.8207   2.8207   2.8964   2.8964

          k = 0.3536 0.2041-0.2887 (  5622 PWs)   bands (ev):

   -13.1093 -13.1093 -13.1093 -13.1093 -12.3942 -12.3942 -12.3942 -12.3942
   -12.1526 -12.1526 -12.1526 -12.1526  -2.9599  -2.9599  -2.9599  -2.9599
    -0.8134  -0.8134  -0.8134  -0.8134   0.1008   0.1008   0.1008   0.1008
     0.5432   0.5432   0.5432   0.5432   1.0038   1.0038   1.0038   1.0038
     1.5692   1.5692   1.5692   1.5692   2.1341   2.1341   2.1341   2.1341
     2.4719   2.4719   2.4719   2.4719   3.0362   3.0362   3.0362   3.0362

          k =-0.1768 0.1021 0.2887 (  5574 PWs)   bands (ev):

   -13.2989 -13.2989 -12.7927 -12.7927 -12.5605 -12.5605 -12.3316 -12.3316
   -12.2673 -12.2673 -12.0584 -12.0584  -3.5718  -3.5718  -2.1619  -2.1619
    -0.6304  -0.6304  -0.4570  -0.4570  -0.2934  -0.2934   0.0904   0.0904
     0.2482   0.2482   0.4490   0.4490   0.6260   0.6260   0.8127   0.8127
     1.6314   1.6314   1.9080   1.9080   2.0487   2.0487   2.4470   2.4470
     2.4581   2.4581   2.6782   2.6782   2.8426   2.8426   3.0583   3.0583

          k = 0.3536 0.4082-0.1443 (  5566 PWs)   bands (ev):

   -13.0420 -13.0420 -13.0097 -13.0097 -12.4978 -12.4978 -12.4092 -12.4092
   -12.2405 -12.2405 -12.1363 -12.1363  -3.4413  -3.4413  -2.5381  -2.5381
    -1.0375  -1.0375  -0.4117  -0.4117  -0.3637  -0.3637   0.1898   0.1898
     0.4360   0.4360   0.5664   0.5664   1.0071   1.0071   1.3675   1.3675
     1.7488   1.7488   1.8222   1.8222   1.9860   1.9860   2.2866   2.2866
     2.4795   2.4795   2.6585   2.6585   2.8929   2.8929   3.0937   3.0937

          k = 0.1768 0.3062 0.0000 (  5574 PWs)   bands (ev):

   -13.3052 -13.3052 -12.7406 -12.7406 -12.6333 -12.6333 -12.2656 -12.2656
   -12.2338 -12.2338 -12.1362 -12.1362  -2.9212  -2.9212  -2.9031  -2.9031
    -1.2589  -1.2589  -0.2963  -0.2963   0.0551   0.0551   0.0966   0.0966
     0.1523   0.1523   0.5161   0.5161   0.6154   0.6154   1.2267   1.2267
     1.7584   1.7584   1.8312   1.8312   2.0720   2.0720   2.3337   2.3337
     2.5362   2.5362   2.6014   2.6014   2.8182   2.8182   3.1425   3.1425

          k = 0.3536-0.2041-0.5774 (  5552 PWs)   bands (ev):

   -12.9470 -12.9470 -12.8318 -12.8318 -12.6673 -12.6673 -12.5049 -12.5049
   -12.2549 -12.2549 -12.1531 -12.1531  -3.6332  -3.6332  -2.4020  -2.4020
    -1.0777  -1.0777  -0.7304  -0.7304  -0.3108  -0.3108   0.0990   0.0990
     0.7093   0.7093   0.7128   0.7128   1.3073   1.3073   1.4187   1.4187
     1.8219   1.8219   1.8919   1.8919   2.1367   2.1367   2.1620   2.1620
     2.4395   2.4395   2.8254   2.8254   2.9196   2.9196   3.0164   3.0164

          k = 0.0000 0.0000 0.4330 (  5614 PWs)   bands (ev):

   -13.1882 -13.1882 -12.6981 -12.6981 -12.6981 -12.6981 -12.3372 -12.3372
   -12.3372 -12.3372 -12.0674 -12.0674  -3.9023  -3.9023  -2.0280  -2.0280
    -0.4300  -0.4300  -0.2120  -0.2120  -0.2120  -0.2120   0.2679   0.2679
     0.2679   0.2679   0.5044   0.5044   0.8243   0.8243   0.8243   0.8243
     1.3498   1.3498   1.5276   1.5276   1.5276   1.5276   2.7475   2.7475
     2.7823   2.7823   2.7823   2.7823   2.8869   2.8869   2.8869   2.8869

          k = 0.5303 0.3062 0.0000 (  5610 PWs)   bands (ev):

   -12.9558 -12.9558 -12.9169 -12.9169 -12.5320 -12.5320 -12.4765 -12.4765
   -12.3080 -12.3080 -12.1647 -12.1647  -3.7384  -3.7384  -2.5750  -2.5750
    -0.8121  -0.8121  -0.0829  -0.0829   0.0394   0.0394   0.1009   0.1009
     0.3353   0.3353   0.6401   0.6401   0.8714   0.8714   1.4049   1.4049
     1.5851   1.5851   1.6896   1.6896   1.9472   1.9472   2.1075   2.1075
     2.6657   2.6657   2.8254   2.8254   2.8310   2.8310   3.1059   3.1059

          k = 0.3536 0.2041 0.1443 (  5614 PWs)   bands (ev):

   -13.2019 -13.2019 -12.7230 -12.7230 -12.6397 -12.6397 -12.3016 -12.3016
   -12.2692 -12.2692 -12.2018 -12.2018  -3.0757  -3.0757  -3.0449  -3.0449
    -0.9688  -0.9688  -0.2151  -0.2151  -0.1973  -0.1973  -0.0245  -0.0245
     0.2705   0.2705   0.7386   0.7386   0.7707   0.7707   1.1977   1.1977
     1.8076   1.8076   2.0584   2.0584   2.1202   2.1202   2.2863   2.2863
     2.5546   2.5546   2.5722   2.5722   2.8935   2.8935   3.2109   3.2109

          k = 0.5303-0.3062-0.4330 (  5628 PWs)   bands (ev):

   -12.8480 -12.8480 -12.7532 -12.7532 -12.6292 -12.6292 -12.5276 -12.5276
   -12.3554 -12.3554 -12.2641 -12.2641  -3.6829  -3.6829  -2.9512  -2.9512
    -0.5284  -0.5284  -0.3489  -0.3489  -0.1395  -0.1395   0.1480   0.1480
     0.5058   0.5058   0.8061   0.8061   1.3695   1.3695   1.3966   1.3966
     1.7477   1.7477   1.8877   1.8877   1.9330   1.9330   2.2946   2.2946
     2.3191   2.3191   2.7511   2.7511   2.8702   2.8702   2.9445   2.9445

          k = 0.3536-0.4082-0.2887 (  5610 PWs)   bands (ev):

   -12.9485 -12.9485 -12.9485 -12.9485 -12.4549 -12.4549 -12.4549 -12.4549
   -12.2764 -12.2764 -12.2764 -12.2764  -3.1771  -3.1771  -3.1771  -3.1771
    -0.6090  -0.6090  -0.6090  -0.6090  -0.2252  -0.2252  -0.2252  -0.2252
     0.7317   0.7317   0.7317   0.7317   1.3544   1.3544   1.3544   1.3544
     1.8473   1.8473   1.8473   1.8473   2.2863   2.2863   2.2863   2.2863
     2.4181   2.4181   2.4181   2.4181   2.9779   2.9779   2.9779   2.9779

          k = 0.0000 0.0000-0.8660 (  5616 PWs)   bands (ev):

   -12.6023 -12.6023 -12.6023 -12.6023 -12.6023 -12.6023 -12.6023 -12.6023
   -12.4933 -12.4933 -12.4933 -12.4933  -3.5294  -3.5294  -3.5294  -3.5294
     0.0660   0.0660   0.0660   0.0660   0.2653   0.2653   0.2653   0.2653
     0.2653   0.2653   0.2653   0.2653   1.5424   1.5424   1.5424   1.5424
     1.5424   1.5424   1.5424   1.5424   2.1497   2.1497   2.1497   2.1497
     2.7102   2.7102   2.7102   2.7102   2.7102   2.7102   2.7102   2.7102

     highest occupied level (ev):     3.2109

!    total energy              =    -218.77491242 Ry
     Harris-Foulkes estimate   =    -218.77491274 Ry
     estimated scf accuracy    <       0.00000042 Ry

     The total energy is the sum of the following terms:

     one-electron contribution =     -68.74781420 Ry
     hartree contribution      =      60.51320481 Ry
     xc contribution           =     -57.95891207 Ry
     ewald contribution        =    -152.58139096 Ry

     convergence has been achieved in  24 iterations

     Writing output data file pwscf.save\

     init_run     :     16.44s CPU      6.69s WALL (       1 calls)
     electrons    :    507.70s CPU    214.53s WALL (       1 calls)

     Called by init_run:
     wfcinit      :     15.41s CPU      5.46s WALL (       1 calls)
     potinit      :      0.03s CPU      0.02s WALL (       1 calls)
     hinit0       :      0.88s CPU      1.04s WALL (       1 calls)

     Called by electrons:
     c_bands      :    478.55s CPU    177.28s WALL (      24 calls)
     sum_band     :     21.42s CPU     32.40s WALL (      24 calls)
     v_of_rho     :      0.59s CPU      0.18s WALL (      25 calls)
     newd         :      2.66s CPU      2.95s WALL (      25 calls)
     mix_rho      :      4.14s CPU      1.64s WALL (      24 calls)

     Called by c_bands:
     init_us_2    :      2.80s CPU      1.33s WALL (     637 calls)
     cegterg      :    457.02s CPU    170.59s WALL (     312 calls)

     Called by sum_band:
     sum_band:bec :      0.11s CPU      0.34s WALL (     312 calls)
     addusdens    :      2.97s CPU      3.37s WALL (      24 calls)

     Called by *egterg:
     h_psi        :    371.39s CPU    132.58s WALL (    1412 calls)
     s_psi        :     10.14s CPU      6.29s WALL (    1412 calls)
     g_psi        :      1.27s CPU      0.80s WALL (    1087 calls)
     cdiaghg      :     12.16s CPU      5.15s WALL (    1399 calls)

     Called by h_psi:
     h_psi:pot    :    368.80s CPU    130.82s WALL (    1412 calls)
     h_psi:calbec :     20.95s CPU      6.73s WALL (    1412 calls)
     vloc_psi     :    328.41s CPU    117.97s WALL (    1412 calls)
     add_vuspsi   :     19.42s CPU      6.11s WALL (    1412 calls)

     General routines
     calbec       :     22.38s CPU      8.99s WALL (    1724 calls)
     fft          :      0.12s CPU      0.10s WALL (     172 calls)
     ffts         :      0.05s CPU      0.05s WALL (      96 calls)
     fftw         :    197.95s CPU     78.13s WALL (  192000 calls)

     Parallel routines

     PWSCF        :   8m44.52s CPU   3m41.79s WALL


   This run was terminated on:  18: 4:23  14Jan2023            

=------------------------------------------------------------------------------=
   JOB DONE.
=------------------------------------------------------------------------------=
