
     Program PWSCF v.6.4.1 starts on 15Jan2023 at  3:57: 2 

     This program is part of the open-source Quantum ESPRESSO suite
     for quantum simulation of materials; please cite
         "P. Giannozzi et al., J. Phys.:Condens. Matter 21 395502 (2009);
         "P. Giannozzi et al., J. Phys.:Condens. Matter 29 465901 (2017);
          URL http://www.quantum-espresso.org", 
     in publications or presentations arising from this work. More details at
     http://www.quantum-espresso.org/quote

     Parallel version (MPI & OpenMP), running on       8 processor cores
     Number of MPI processes:                 1
     Threads/MPI process:                     8

     MPI processes distributed on     1 nodes
     Waiting for input...
     Reading input from standard input

     Current dimensions of program PWSCF are:
     Max number of different atomic species (ntypx) = 10
     Max number of k-points (npk) =  40000
     Max angular momentum in pseudopotentials (lmaxx) =  3

     Atomic positions and unit cell read from directory:
     ./\pwscf.save\

     Message from routine setup:
     At least one non s.o. pseudo

     Subspace diagonalization in iterative solution of the eigenvalue problem:
     a serial algorithm will be used


     G-vector sticks info
     --------------------
     sticks:   dense  smooth     PW     G-vecs:    dense   smooth      PW
     Sum         597     265    103                 9211     2741     647



     bravais-lattice index     =            5
     lattice parameter (alat)  =       4.4950  a.u.
     unit-cell volume          =      57.1897 (a.u.)^3
     number of atoms/cell      =           10
     number of atomic types    =            2
     number of electrons       =        48.00
     number of Kohn-Sham states=           52
     kinetic-energy cutoff     =      50.0000  Ry
     charge density cutoff     =     450.0000  Ry
     Exchange-correlation      = SLA  PZ   NOGX NOGC ( 1  1  0  0 0 0)
     Non magnetic calculation with spin-orbit


     celldm(1)=   4.494960  celldm(2)=   0.000000  celldm(3)=   0.000000
     celldm(4)=   0.569423  celldm(5)=   0.000000  celldm(6)=   0.000000

     crystal axes: (cart. coord. in units of alat)
               a(1) = (   0.463992  -0.267886   0.844363 )  
               a(2) = (   0.000000   0.535772   0.844363 )  
               a(3) = (  -0.463992  -0.267886   0.844363 )  

     reciprocal axes: (cart. coord. in units 2 pi/alat)
               b(1) = (  1.077605 -0.622156  0.394775 )  
               b(2) = (  0.000000  1.244311  0.394775 )  
               b(3) = ( -1.077605 -0.622156  0.394775 )  


     PseudoPot. # 1 for Al read from file:
     .\al_lda_v1.uspp.F.UPF
     MD5 check sum: 660d30c250141be3e500045abb5857a1
     Pseudo is Ultrasoft + core correction, Zval =  3.0
     Generated by new atomic code, or converted to UPF format
     Using radial grid of  893 points,  3 beta functions with: 
                l(1) =   0
                l(2) =   1
                l(3) =   2
     Q(r) pseudized with  8 coefficients,  rinner =    0.900   0.900   0.900
                                                       0.900   0.900

     PseudoPot. # 2 for O  read from file:
     .\o_lda_v1.2.uspp.F.UPF
     MD5 check sum: 3e2ffb59835393a51bcb0738dc0b1c52
     Pseudo is Ultrasoft + core correction, Zval =  6.0
     Generated by new atomic code, or converted to UPF format
     Using radial grid of  737 points,  5 beta functions with: 
                l(1) =   0
                l(2) =   0
                l(3) =   1
                l(4) =   1
                l(5) =   2
     Q(r) pseudized with  8 coefficients,  rinner =    0.900   0.900   0.900
                                                       0.900   0.900

     atomic species   valence    mass     pseudopotential
        Al             3.00    26.98154     Al( 1.00)
        O              6.00    15.99900     O ( 1.00)

     12 Sym. Ops., with inversion, found ( 6 have fractional translation)


                                    s                        frac. trans.

      isym =  1     identity                                     

 cryst.   s( 1) = (     1          0          0      )
                  (     0          1          0      )
                  (     0          0          1      )

 cart.    s( 1) = (  1.0000000  0.0000000  0.0000000 )
                  (  0.0000000  1.0000000  0.0000000 )
                  (  0.0000000  0.0000000  1.0000000 )


      isym =  2     180 deg rotation - cart. axis [1,0,0]        

 cryst.   s( 2) = (     0          0         -1      )    f =( -0.5000000 )
                  (     0         -1          0      )       (  0.5000000 )
                  (    -1          0          0      )       ( -0.5000000 )

 cart.    s( 2) = (  1.0000000  0.0000000  0.0000000 )    f =(  0.0000000 )
                  (  0.0000000 -1.0000000  0.0000000 )       (  0.5357717 )
                  (  0.0000000  0.0000000 -1.0000000 )       ( -0.4221814 )


      isym =  3     120 deg rotation - cryst. axis [0,0,1]       

 cryst.   s( 3) = (     0          1          0      )
                  (     0          0          1      )
                  (     1          0          0      )

 cart.    s( 3) = ( -0.5000000 -0.8660254 -0.0000000 )
                  (  0.8660254 -0.5000000 -0.0000000 )
                  (  0.0000000  0.0000000  1.0000000 )


      isym =  4     120 deg rotation - cryst. axis [0,0,-1]      

 cryst.   s( 4) = (     0          0          1      )
                  (     1          0          0      )
                  (     0          1          0      )

 cart.    s( 4) = ( -0.5000000  0.8660254  0.0000000 )
                  ( -0.8660254 -0.5000000 -0.0000000 )
                  (  0.0000000  0.0000000  1.0000000 )


      isym =  5     180 deg rotation - cryst. axis [0,1,0]       

 cryst.   s( 5) = (     0         -1          0      )    f =(  0.5000000 )
                  (    -1          0          0      )       (  0.5000000 )
                  (     0          0         -1      )       ( -0.5000000 )

 cart.    s( 5) = ( -0.5000000 -0.8660254 -0.0000000 )    f =(  0.4639919 )
                  ( -0.8660254  0.5000000  0.0000000 )       (  0.2678859 )
                  (  0.0000000  0.0000000 -1.0000000 )       (  0.4221814 )


      isym =  6     180 deg rotation - cryst. axis [1,1,0]       

 cryst.   s( 6) = (    -1          0          0      )    f =( -0.5000000 )
                  (     0          0         -1      )       (  0.5000000 )
                  (     0         -1          0      )       (  0.5000000 )

 cart.    s( 6) = ( -0.5000000  0.8660254  0.0000000 )    f =( -0.4639919 )
                  (  0.8660254  0.5000000  0.0000000 )       (  0.2678859 )
                  (  0.0000000  0.0000000 -1.0000000 )       (  0.4221814 )


      isym =  7     inversion                                    

 cryst.   s( 7) = (    -1          0          0      )
                  (     0         -1          0      )
                  (     0          0         -1      )

 cart.    s( 7) = ( -1.0000000  0.0000000  0.0000000 )
                  (  0.0000000 -1.0000000  0.0000000 )
                  (  0.0000000  0.0000000 -1.0000000 )


      isym =  8     inv. 180 deg rotation - cart. axis [1,0,0]   

 cryst.   s( 8) = (     0          0          1      )    f =( -0.5000000 )
                  (     0          1          0      )       ( -0.5000000 )
                  (     1          0          0      )       ( -0.5000000 )

 cart.    s( 8) = ( -1.0000000  0.0000000  0.0000000 )    f =(  0.0000000 )
                  (  0.0000000  1.0000000  0.0000000 )       (  0.0000000 )
                  (  0.0000000  0.0000000  1.0000000 )       ( -1.2665443 )


      isym =  9     inv. 120 deg rotation - cryst. axis [0,0,1]  

 cryst.   s( 9) = (     0         -1          0      )
                  (     0          0         -1      )
                  (    -1          0          0      )

 cart.    s( 9) = (  0.5000000  0.8660254  0.0000000 )
                  ( -0.8660254  0.5000000  0.0000000 )
                  (  0.0000000  0.0000000 -1.0000000 )


      isym = 10     inv. 120 deg rotation - cryst. axis [0,0,-1] 

 cryst.   s(10) = (     0          0         -1      )
                  (    -1          0          0      )
                  (     0         -1          0      )

 cart.    s(10) = (  0.5000000 -0.8660254 -0.0000000 )
                  (  0.8660254  0.5000000  0.0000000 )
                  (  0.0000000  0.0000000 -1.0000000 )


      isym = 11     inv. 180 deg rotation - cryst. axis [0,1,0]  

 cryst.   s(11) = (     0          1          0      )    f =( -0.5000000 )
                  (     1          0          0      )       (  0.5000000 )
                  (     0          0          1      )       ( -0.5000000 )

 cart.    s(11) = (  0.5000000  0.8660254  0.0000000 )    f =(  0.0000000 )
                  (  0.8660254 -0.5000000 -0.0000000 )       (  0.5357717 )
                  (  0.0000000  0.0000000  1.0000000 )       ( -0.4221814 )


      isym = 12     inv. 180 deg rotation - cryst. axis [1,1,0]  

 cryst.   s(12) = (     1          0          0      )    f =( -0.5000000 )
                  (     0          0          1      )       (  0.5000000 )
                  (     0          1          0      )       ( -0.5000000 )

 cart.    s(12) = (  0.5000000 -0.8660254 -0.0000000 )    f =( -0.0000000 )
                  ( -0.8660254 -0.5000000 -0.0000000 )       (  0.5357717 )
                  (  0.0000000  0.0000000  1.0000000 )       ( -0.4221814 )


     double point group D_3d (-3m) 
     there are 12 classes and  6 irreducible representations
     the character table:

       E     -E    2C3   -2C3  3C2'  -3C2' i     -i    2S6   -2S6  3s_v  -3s_v
                                                                              
G_4+   2.00 -2.00  1.00 -1.00  0.00  0.00  2.00 -2.00  1.00 -1.00  0.00  0.00
G_5+   1.00 -1.00 -1.00  1.00  0.00  0.00  1.00 -1.00 -1.00  1.00  0.00  0.00
G_6+   1.00 -1.00 -1.00  1.00  0.00  0.00  1.00 -1.00 -1.00  1.00  0.00  0.00
G_4-   2.00 -2.00  1.00 -1.00  0.00  0.00 -2.00  2.00 -1.00  1.00  0.00  0.00
G_5-   1.00 -1.00 -1.00  1.00  0.00  0.00 -1.00  1.00  1.00 -1.00  0.00  0.00
G_6-   1.00 -1.00 -1.00  1.00  0.00  0.00 -1.00  1.00  1.00 -1.00  0.00  0.00

     imaginary part

       E     -E    2C3   -2C3  3C2'  -3C2' i     -i    2S6   -2S6  3s_v  -3s_v
                                                                              
G_4+   0.00  0.00  0.00  0.00  0.00  0.00  0.00  0.00  0.00  0.00  0.00  0.00
G_5+   0.00  0.00  0.00  0.00  1.00 -1.00  0.00  0.00  0.00  0.00  1.00 -1.00
G_6+   0.00  0.00  0.00  0.00 -1.00  1.00  0.00  0.00  0.00  0.00 -1.00  1.00
G_4-   0.00  0.00  0.00  0.00  0.00  0.00  0.00  0.00  0.00  0.00  0.00  0.00
G_5-   0.00  0.00  0.00  0.00  1.00 -1.00  0.00  0.00  0.00  0.00 -1.00  1.00
G_6-   0.00  0.00  0.00  0.00 -1.00  1.00  0.00  0.00  0.00  0.00  1.00 -1.00

     the symmetry operations in each class and the name of the first element:

     E             1
          identity                                               
     -E           -1
          identity E                                             
     2C3           3    4
          120 deg rotation - cryst. axis [0,0,1]                 
     -2C3         -3   -4
          120 deg rotation - cryst. axis [0,0,1] E               
     3C2'          2   -5   -6
          180 deg rotation - cart. axis [1,0,0]                  
     3C2'          5    6   -2
          180 deg rotation - cryst. axis [0,1,0]                 
     i             7
          inversion                                              
     -i           -7
          inversion E                                            
     2S6           9   10
          inv. 120 deg rotation - cryst. axis [0,0,1]            
     -2S6         -9  -10
          inv. 120 deg rotation - cryst. axis [0,0,1] E          
     3s_v          8  -11  -12
          inv. 180 deg rotation - cart. axis [1,0,0]             
     3s_v         11   12   -8
          inv. 180 deg rotation - cryst. axis [0,1,0]            

   Cartesian axes

     site n.     atom                  positions (alat units)
         1           Al  tau(   1) = (   0.0000000  -0.0000000   0.3727618  )
         2           Al  tau(   2) = (   0.0000000  -0.0000000   0.8937825  )
         3           Al  tau(   3) = (   0.0000000  -0.0000000   1.6393062  )
         4           Al  tau(   4) = (   0.0000000  -0.0000000   2.1603268  )
         5           O   tau(   5) = (  -0.1807109   0.2678859   1.0554536  )
         6           O   tau(   6) = (  -0.3223514  -0.0225573   1.4776350  )
         7           O   tau(   7) = (  -0.1416405  -0.2904432   1.0554536  )
         8           O   tau(   8) = (   0.1416405   0.2904432   1.4776350  )
         9           O   tau(   9) = (   0.3223514   0.0225573   1.0554536  )
        10           O   tau(  10) = (   0.1807109  -0.2678859   1.4776350  )

   Crystallographic axes

     site n.     atom                  positions (cryst. coord.)
         1           Al  tau(   1) = (  0.1471570  0.1471570  0.1471570  )
         2           Al  tau(   2) = (  0.3528430  0.3528430  0.3528430  )
         3           Al  tau(   3) = (  0.6471570  0.6471570  0.6471570  )
         4           Al  tau(   4) = (  0.8528430  0.8528430  0.8528430  )
         5           O   tau(   5) = (  0.0552650  0.7500000  0.4447350  )
         6           O   tau(   6) = (  0.2500000  0.5552650  0.9447350  )
         7           O   tau(   7) = (  0.4447350  0.0552650  0.7500000  )
         8           O   tau(   8) = (  0.5552650  0.9447350  0.2500000  )
         9           O   tau(   9) = (  0.7500000  0.4447350  0.0552650  )
        10           O   tau(  10) = (  0.9447350  0.2500000  0.5552650  )

     number of k points=  1266 (tetrahedron method)
                       cart. coord. in units 2pi/alat
        k(    1) = (   0.0000000   0.0000000   0.0000000), wk =   0.0002066
        k(    2) = (  -0.1077605  -0.0622156   0.0394775), wk =   0.0004132
        k(    3) = (  -0.2155210  -0.1244311   0.0789550), wk =   0.0004132
        k(    4) = (  -0.3232815  -0.1866467   0.1184325), wk =   0.0004132
        k(    5) = (  -0.4310420  -0.2488622   0.1579100), wk =   0.0004132
        k(    6) = (   0.5388025   0.3110778  -0.1973875), wk =   0.0006198
        k(    7) = (   0.0000000   0.0565596   0.0179443), wk =   0.0008264
        k(    8) = (  -0.1077605  -0.0056560   0.0574218), wk =   0.0008264
        k(    9) = (  -0.2155210  -0.0678715   0.0968993), wk =   0.0008264
        k(   10) = (  -0.3232815  -0.1300871   0.1363768), wk =   0.0008264
        k(   11) = (  -0.4310420  -0.1923026   0.1758543), wk =   0.0008264
        k(   12) = (   0.5388025   0.3676374  -0.1794432), wk =   0.0016529
        k(   13) = (   0.4310420   0.3054218  -0.1399657), wk =   0.0008264
        k(   14) = (   0.3232815   0.2432063  -0.1004882), wk =   0.0008264
        k(   15) = (   0.2155210   0.1809907  -0.0610107), wk =   0.0008264
        k(   16) = (   0.1077605   0.1187751  -0.0215332), wk =   0.0008264
        k(   17) = (   0.0000000   0.1131192   0.0358886), wk =   0.0008264
        k(   18) = (  -0.1077605   0.0509036   0.0753661), wk =   0.0008264
        k(   19) = (  -0.2155210  -0.0113119   0.1148436), wk =   0.0008264
        k(   20) = (  -0.3232815  -0.0735275   0.1543211), wk =   0.0008264
        k(   21) = (  -0.4310420  -0.1357430   0.1937986), wk =   0.0008264
        k(   22) = (   0.5388025   0.4241970  -0.1614989), wk =   0.0016529
        k(   23) = (   0.4310420   0.3619814  -0.1220214), wk =   0.0008264
        k(   24) = (   0.3232815   0.2997658  -0.0825439), wk =   0.0008264
        k(   25) = (   0.2155210   0.2375503  -0.0430664), wk =   0.0008264
        k(   26) = (   0.1077605   0.1753347  -0.0035889), wk =   0.0008264
        k(   27) = (   0.0000000   0.1696788   0.0538330), wk =   0.0008264
        k(   28) = (  -0.1077605   0.1074632   0.0933104), wk =   0.0008264
        k(   29) = (  -0.2155210   0.0452477   0.1327879), wk =   0.0008264
        k(   30) = (  -0.3232815  -0.0169679   0.1722654), wk =   0.0008264
        k(   31) = (  -0.4310420  -0.0791834   0.2117429), wk =   0.0008264
        k(   32) = (   0.5388025   0.4807565  -0.1435545), wk =   0.0016529
        k(   33) = (   0.4310420   0.4185410  -0.1040770), wk =   0.0008264
        k(   34) = (   0.3232815   0.3563254  -0.0645995), wk =   0.0008264
        k(   35) = (   0.2155210   0.2941099  -0.0251220), wk =   0.0008264
        k(   36) = (   0.1077605   0.2318943   0.0143555), wk =   0.0008264
        k(   37) = (   0.0000000   0.2262384   0.0717773), wk =   0.0008264
        k(   38) = (  -0.1077605   0.1640228   0.1112548), wk =   0.0008264
        k(   39) = (  -0.2155210   0.1018073   0.1507323), wk =   0.0008264
        k(   40) = (  -0.3232815   0.0395917   0.1902098), wk =   0.0008264
        k(   41) = (  -0.4310420  -0.0226238   0.2296873), wk =   0.0008264
        k(   42) = (   0.5388025   0.5373161  -0.1256102), wk =   0.0016529
        k(   43) = (   0.4310420   0.4751006  -0.0861327), wk =   0.0008264
        k(   44) = (   0.3232815   0.4128850  -0.0466552), wk =   0.0008264
        k(   45) = (   0.2155210   0.3506695  -0.0071777), wk =   0.0008264
        k(   46) = (   0.1077605   0.2884539   0.0322998), wk =   0.0008264
        k(   47) = (   0.0000000   0.2827980   0.0897216), wk =   0.0008264
        k(   48) = (  -0.1077605   0.2205824   0.1291991), wk =   0.0008264
        k(   49) = (  -0.2155210   0.1583669   0.1686766), wk =   0.0008264
        k(   50) = (  -0.3232815   0.0961513   0.2081541), wk =   0.0008264
        k(   51) = (  -0.4310420   0.0339358   0.2476316), wk =   0.0008264
        k(   52) = (   0.5388025   0.5938757  -0.1076659), wk =   0.0016529
        k(   53) = (   0.4310420   0.5316602  -0.0681884), wk =   0.0008264
        k(   54) = (   0.3232815   0.4694446  -0.0287109), wk =   0.0008264
        k(   55) = (   0.2155210   0.4072291   0.0107666), wk =   0.0008264
        k(   56) = (   0.1077605   0.3450135   0.0502441), wk =   0.0008264
        k(   57) = (   0.0000000   0.3393576   0.1076659), wk =   0.0008264
        k(   58) = (  -0.1077605   0.2771420   0.1471434), wk =   0.0008264
        k(   59) = (  -0.2155210   0.2149265   0.1866209), wk =   0.0008264
        k(   60) = (  -0.3232815   0.1527109   0.2260984), wk =   0.0008264
        k(   61) = (  -0.4310420   0.0904953   0.2655759), wk =   0.0008264
        k(   62) = (   0.5388025   0.6504353  -0.0897216), wk =   0.0016529
        k(   63) = (   0.4310420   0.5882198  -0.0502441), wk =   0.0008264
        k(   64) = (   0.3232815   0.5260042  -0.0107666), wk =   0.0008264
        k(   65) = (   0.2155210   0.4637887   0.0287109), wk =   0.0008264
        k(   66) = (   0.1077605   0.4015731   0.0681884), wk =   0.0008264
        k(   67) = (   0.0000000   0.3959172   0.1256102), wk =   0.0008264
        k(   68) = (  -0.1077605   0.3337016   0.1650877), wk =   0.0008264
        k(   69) = (  -0.2155210   0.2714860   0.2045652), wk =   0.0008264
        k(   70) = (  -0.3232815   0.2092705   0.2440427), wk =   0.0008264
        k(   71) = (  -0.4310420   0.1470549   0.2835202), wk =   0.0008264
        k(   72) = (   0.5388025   0.7069949  -0.0717773), wk =   0.0016529
        k(   73) = (   0.4310420   0.6447794  -0.0322998), wk =   0.0008264
        k(   74) = (   0.3232815   0.5825638   0.0071777), wk =   0.0008264
        k(   75) = (   0.2155210   0.5203483   0.0466552), wk =   0.0008264
        k(   76) = (   0.1077605   0.4581327   0.0861327), wk =   0.0008264
        k(   77) = (   0.0000000   0.4524767   0.1435545), wk =   0.0008264
        k(   78) = (  -0.1077605   0.3902612   0.1830320), wk =   0.0008264
        k(   79) = (  -0.2155210   0.3280456   0.2225095), wk =   0.0008264
        k(   80) = (  -0.3232815   0.2658301   0.2619870), wk =   0.0008264
        k(   81) = (  -0.4310420   0.2036145   0.3014645), wk =   0.0008264
        k(   82) = (   0.5388025   0.7635545  -0.0538330), wk =   0.0016529
        k(   83) = (   0.4310420   0.7013390  -0.0143555), wk =   0.0008264
        k(   84) = (   0.3232815   0.6391234   0.0251220), wk =   0.0008264
        k(   85) = (   0.2155210   0.5769079   0.0645995), wk =   0.0008264
        k(   86) = (   0.1077605   0.5146923   0.1040770), wk =   0.0008264
        k(   87) = (   0.0000000   0.5090363   0.1614989), wk =   0.0008264
        k(   88) = (  -0.1077605   0.4468208   0.2009764), wk =   0.0008264
        k(   89) = (  -0.2155210   0.3846052   0.2404538), wk =   0.0008264
        k(   90) = (  -0.3232815   0.3223897   0.2799313), wk =   0.0008264
        k(   91) = (  -0.4310420   0.2601741   0.3194088), wk =   0.0008264
        k(   92) = (   0.5388025   0.8201141  -0.0358886), wk =   0.0016529
        k(   93) = (   0.4310420   0.7578986   0.0035889), wk =   0.0008264
        k(   94) = (   0.3232815   0.6956830   0.0430664), wk =   0.0008264
        k(   95) = (   0.2155210   0.6334674   0.0825439), wk =   0.0008264
        k(   96) = (   0.1077605   0.5712519   0.1220214), wk =   0.0008264
        k(   97) = (   0.0000000   0.5655959   0.1794432), wk =   0.0008264
        k(   98) = (  -0.1077605   0.5033804   0.2189207), wk =   0.0008264
        k(   99) = (  -0.2155210   0.4411648   0.2583982), wk =   0.0008264
        k(  100) = (  -0.3232815   0.3789493   0.2978757), wk =   0.0008264
        k(  101) = (  -0.4310420   0.3167337   0.3373532), wk =   0.0008264
        k(  102) = (   0.5388025   0.8766737  -0.0179443), wk =   0.0016529
        k(  103) = (   0.4310420   0.8144581   0.0215332), wk =   0.0008264
        k(  104) = (   0.3232815   0.7522426   0.0610107), wk =   0.0008264
        k(  105) = (   0.2155210   0.6900270   0.1004882), wk =   0.0008264
        k(  106) = (   0.1077605   0.6278115   0.1399657), wk =   0.0008264
        k(  107) = (  -0.1077605  -0.6843711  -0.1579100), wk =   0.0008264
        k(  108) = (  -0.2155210  -0.7465866  -0.1184325), wk =   0.0008264
        k(  109) = (  -0.3232815  -0.8088022  -0.0789550), wk =   0.0008264
        k(  110) = (  -0.4310420  -0.8710177  -0.0394775), wk =   0.0008264
        k(  111) = (   0.5388025  -0.3110778  -0.3947750), wk =   0.0006198
        k(  112) = (   0.0489820   0.0282798   0.0358886), wk =   0.0004132
        k(  113) = (  -0.0587785  -0.0339358   0.0753661), wk =   0.0004132
        k(  114) = (  -0.1665390  -0.0961513   0.1148436), wk =   0.0004132
        k(  115) = (  -0.2742995  -0.1583669   0.1543211), wk =   0.0004132
        k(  116) = (  -0.3820599  -0.2205824   0.1937986), wk =   0.0004132
        k(  117) = (   0.5877845   0.3393576  -0.1614989), wk =   0.0004132
        k(  118) = (   0.4800240   0.2771420  -0.1220214), wk =   0.0004132
        k(  119) = (   0.3722635   0.2149265  -0.0825439), wk =   0.0004132
        k(  120) = (   0.2645030   0.1527109  -0.0430664), wk =   0.0004132
        k(  121) = (   0.1567425   0.0904953  -0.0035889), wk =   0.0004132
        k(  122) = (   0.0489820   0.0848394   0.0538330), wk =   0.0008264
        k(  123) = (  -0.0587785   0.0226238   0.0933104), wk =   0.0008264
        k(  124) = (  -0.1665390  -0.0395917   0.1327879), wk =   0.0008264
        k(  125) = (  -0.2742995  -0.1018073   0.1722654), wk =   0.0008264
        k(  126) = (  -0.3820599  -0.1640228   0.2117429), wk =   0.0008264
        k(  127) = (   0.5877845   0.3959172  -0.1435545), wk =   0.0008264
        k(  128) = (   0.4800240   0.3337016  -0.1040770), wk =   0.0008264
        k(  129) = (   0.3722635   0.2714860  -0.0645995), wk =   0.0008264
        k(  130) = (   0.2645030   0.2092705  -0.0251220), wk =   0.0008264
        k(  131) = (   0.1567425   0.1470549   0.0143555), wk =   0.0008264
        k(  132) = (   0.0489820   0.1413990   0.0717773), wk =   0.0008264
        k(  133) = (  -0.0587785   0.0791834   0.1112548), wk =   0.0008264
        k(  134) = (  -0.1665390   0.0169679   0.1507323), wk =   0.0008264
        k(  135) = (  -0.2742995  -0.0452477   0.1902098), wk =   0.0008264
        k(  136) = (  -0.3820599  -0.1074632   0.2296873), wk =   0.0008264
        k(  137) = (   0.5877845   0.4524767  -0.1256102), wk =   0.0008264
        k(  138) = (   0.4800240   0.3902612  -0.0861327), wk =   0.0008264
        k(  139) = (   0.3722635   0.3280456  -0.0466552), wk =   0.0008264
        k(  140) = (   0.2645030   0.2658301  -0.0071777), wk =   0.0008264
        k(  141) = (   0.1567425   0.2036145   0.0322998), wk =   0.0008264
        k(  142) = (   0.0489820   0.1979586   0.0897216), wk =   0.0008264
        k(  143) = (  -0.0587785   0.1357430   0.1291991), wk =   0.0008264
        k(  144) = (  -0.1665390   0.0735275   0.1686766), wk =   0.0008264
        k(  145) = (  -0.2742995   0.0113119   0.2081541), wk =   0.0008264
        k(  146) = (  -0.3820599  -0.0509036   0.2476316), wk =   0.0008264
        k(  147) = (   0.5877845   0.5090363  -0.1076659), wk =   0.0008264
        k(  148) = (   0.4800240   0.4468208  -0.0681884), wk =   0.0008264
        k(  149) = (   0.3722635   0.3846052  -0.0287109), wk =   0.0008264
        k(  150) = (   0.2645030   0.3223897   0.0107666), wk =   0.0008264
        k(  151) = (   0.1567425   0.2601741   0.0502441), wk =   0.0008264
        k(  152) = (   0.0489820   0.2545182   0.1076659), wk =   0.0008264
        k(  153) = (  -0.0587785   0.1923026   0.1471434), wk =   0.0008264
        k(  154) = (  -0.1665390   0.1300871   0.1866209), wk =   0.0008264
        k(  155) = (  -0.2742995   0.0678715   0.2260984), wk =   0.0008264
        k(  156) = (  -0.3820599   0.0056560   0.2655759), wk =   0.0008264
        k(  157) = (   0.5877845   0.5655959  -0.0897216), wk =   0.0008264
        k(  158) = (   0.4800240   0.5033804  -0.0502441), wk =   0.0008264
        k(  159) = (   0.3722635   0.4411648  -0.0107666), wk =   0.0008264
        k(  160) = (   0.2645030   0.3789493   0.0287109), wk =   0.0008264
        k(  161) = (   0.1567425   0.3167337   0.0681884), wk =   0.0008264
        k(  162) = (   0.0489820   0.3110778   0.1256102), wk =   0.0008264
        k(  163) = (  -0.0587785   0.2488622   0.1650877), wk =   0.0008264
        k(  164) = (  -0.1665390   0.1866467   0.2045652), wk =   0.0008264
        k(  165) = (  -0.2742995   0.1244311   0.2440427), wk =   0.0008264
        k(  166) = (  -0.3820599   0.0622156   0.2835202), wk =   0.0008264
        k(  167) = (   0.5877845   0.6221555  -0.0717773), wk =   0.0008264
        k(  168) = (   0.4800240   0.5599400  -0.0322998), wk =   0.0008264
        k(  169) = (   0.3722635   0.4977244   0.0071777), wk =   0.0008264
        k(  170) = (   0.2645030   0.4355089   0.0466552), wk =   0.0008264
        k(  171) = (   0.1567425   0.3732933   0.0861327), wk =   0.0008264
        k(  172) = (   0.0489820   0.3676374   0.1435545), wk =   0.0008264
        k(  173) = (  -0.0587785   0.3054218   0.1830320), wk =   0.0008264
        k(  174) = (  -0.1665390   0.2432063   0.2225095), wk =   0.0008264
        k(  175) = (  -0.2742995   0.1809907   0.2619870), wk =   0.0008264
        k(  176) = (  -0.3820599   0.1187751   0.3014645), wk =   0.0008264
        k(  177) = (   0.5877845   0.6787151  -0.0538330), wk =   0.0008264
        k(  178) = (   0.4800240   0.6164996  -0.0143555), wk =   0.0008264
        k(  179) = (   0.3722635   0.5542840   0.0251220), wk =   0.0008264
        k(  180) = (   0.2645030   0.4920685   0.0645995), wk =   0.0008264
        k(  181) = (   0.1567425   0.4298529   0.1040770), wk =   0.0008264
        k(  182) = (   0.0489820   0.4241970   0.1614989), wk =   0.0008264
        k(  183) = (  -0.0587785   0.3619814   0.2009764), wk =   0.0008264
        k(  184) = (  -0.1665390   0.2997658   0.2404538), wk =   0.0008264
        k(  185) = (  -0.2742995   0.2375503   0.2799313), wk =   0.0008264
        k(  186) = (  -0.3820599   0.1753347   0.3194088), wk =   0.0008264
        k(  187) = (   0.5877845   0.7352747  -0.0358886), wk =   0.0008264
        k(  188) = (   0.4800240   0.6730592   0.0035889), wk =   0.0008264
        k(  189) = (   0.3722635   0.6108436   0.0430664), wk =   0.0008264
        k(  190) = (   0.2645030   0.5486281   0.0825439), wk =   0.0008264
        k(  191) = (   0.1567425   0.4864125   0.1220214), wk =   0.0008264
        k(  192) = (   0.0489820   0.4807565   0.1794432), wk =   0.0008264
        k(  193) = (  -0.0587785   0.4185410   0.2189207), wk =   0.0008264
        k(  194) = (  -0.1665390   0.3563254   0.2583982), wk =   0.0008264
        k(  195) = (  -0.2742995   0.2941099   0.2978757), wk =   0.0008264
        k(  196) = (  -0.3820599   0.2318943   0.3373532), wk =   0.0008264
        k(  197) = (   0.5877845   0.7918343  -0.0179443), wk =   0.0008264
        k(  198) = (   0.4800240   0.7296188   0.0215332), wk =   0.0008264
        k(  199) = (   0.3722635   0.6674032   0.0610107), wk =   0.0008264
        k(  200) = (   0.2645030   0.6051876   0.1004882), wk =   0.0008264
        k(  201) = (   0.1567425   0.5429721   0.1399657), wk =   0.0008264
        k(  202) = (   0.0489820   0.5373161   0.1973875), wk =   0.0008264
        k(  203) = (  -0.0587785   0.4751006   0.2368650), wk =   0.0008264
        k(  204) = (  -0.1665390   0.4128850   0.2763425), wk =   0.0008264
        k(  205) = (  -0.2742995   0.3506695   0.3158200), wk =   0.0008264
        k(  206) = (  -0.3820599   0.2884539   0.3552975), wk =   0.0008264
        k(  207) = (   0.5877845   0.8483939   0.0000000), wk =   0.0008264
        k(  208) = (   0.4800240   0.7861783   0.0394775), wk =   0.0008264
        k(  209) = (   0.3722635   0.7239628   0.0789550), wk =   0.0008264
        k(  210) = (   0.2645030   0.6617472   0.1184325), wk =   0.0008264
        k(  211) = (   0.1567425   0.5995317   0.1579100), wk =   0.0008264
        k(  212) = (  -0.0587785  -0.7126509  -0.1399657), wk =   0.0008264
        k(  213) = (  -0.1665390  -0.7748664  -0.1004882), wk =   0.0008264
        k(  214) = (  -0.2742995  -0.8370820  -0.0610107), wk =   0.0008264
        k(  215) = (  -0.3820599  -0.8992975  -0.0215332), wk =   0.0008264
        k(  216) = (   0.5877845  -0.3393576  -0.3768307), wk =   0.0008264
        k(  217) = (   0.4800240  -0.4015731  -0.3373532), wk =   0.0008264
        k(  218) = (   0.3722635  -0.4637887  -0.2978757), wk =   0.0008264
        k(  219) = (   0.2645030  -0.5260042  -0.2583982), wk =   0.0008264
        k(  220) = (   0.1567425  -0.5882198  -0.2189207), wk =   0.0008264
        k(  221) = (   0.0489820  -0.5938757  -0.1614989), wk =   0.0008264
        k(  222) = (  -0.0587785  -0.6560913  -0.1220214), wk =   0.0008264
        k(  223) = (  -0.1665390  -0.7183068  -0.0825439), wk =   0.0008264
        k(  224) = (  -0.2742995  -0.7805224  -0.0430664), wk =   0.0008264
        k(  225) = (  -0.3820599  -0.8427379  -0.0035889), wk =   0.0008264
        k(  226) = (   0.5877845  -0.2827980  -0.3588863), wk =   0.0008264
        k(  227) = (   0.4800240  -0.3450135  -0.3194088), wk =   0.0008264
        k(  228) = (   0.3722635  -0.4072291  -0.2799313), wk =   0.0008264
        k(  229) = (   0.2645030  -0.4694446  -0.2404538), wk =   0.0008264
        k(  230) = (   0.1567425  -0.5316602  -0.2009764), wk =   0.0008264
        k(  231) = (   0.0489820  -0.5373161  -0.1435545), wk =   0.0008264
        k(  232) = (  -0.0587785  -0.5995317  -0.1040770), wk =   0.0008264
        k(  233) = (  -0.1665390  -0.6617472  -0.0645995), wk =   0.0008264
        k(  234) = (  -0.2742995  -0.7239628  -0.0251220), wk =   0.0008264
        k(  235) = (  -0.3820599  -0.7861783   0.0143555), wk =   0.0008264
        k(  236) = (   0.5877845  -0.2262384  -0.3409420), wk =   0.0008264
        k(  237) = (   0.4800240  -0.2884539  -0.3014645), wk =   0.0008264
        k(  238) = (   0.3722635  -0.3506695  -0.2619870), wk =   0.0008264
        k(  239) = (   0.2645030  -0.4128850  -0.2225095), wk =   0.0008264
        k(  240) = (   0.1567425  -0.4751006  -0.1830320), wk =   0.0008264
        k(  241) = (   0.0489820  -0.4807565  -0.1256102), wk =   0.0008264
        k(  242) = (  -0.0587785  -0.5429721  -0.0861327), wk =   0.0008264
        k(  243) = (  -0.1665390  -0.6051876  -0.0466552), wk =   0.0008264
        k(  244) = (  -0.2742995  -0.6674032  -0.0071777), wk =   0.0008264
        k(  245) = (  -0.3820599  -0.7296188   0.0322998), wk =   0.0008264
        k(  246) = (   0.5877845  -0.1696788  -0.3229977), wk =   0.0008264
        k(  247) = (   0.4800240  -0.2318943  -0.2835202), wk =   0.0008264
        k(  248) = (   0.3722635  -0.2941099  -0.2440427), wk =   0.0008264
        k(  249) = (   0.2645030  -0.3563254  -0.2045652), wk =   0.0008264
        k(  250) = (   0.1567425  -0.4185410  -0.1650877), wk =   0.0008264
        k(  251) = (   0.0489820  -0.4241970  -0.1076659), wk =   0.0008264
        k(  252) = (  -0.0587785  -0.4864125  -0.0681884), wk =   0.0008264
        k(  253) = (  -0.1665390  -0.5486281  -0.0287109), wk =   0.0008264
        k(  254) = (  -0.2742995  -0.6108436   0.0107666), wk =   0.0008264
        k(  255) = (  -0.3820599  -0.6730592   0.0502441), wk =   0.0008264
        k(  256) = (   0.5877845  -0.1131192  -0.3050534), wk =   0.0008264
        k(  257) = (   0.4800240  -0.1753347  -0.2655759), wk =   0.0008264
        k(  258) = (   0.3722635  -0.2375503  -0.2260984), wk =   0.0008264
        k(  259) = (   0.2645030  -0.2997658  -0.1866209), wk =   0.0008264
        k(  260) = (   0.1567425  -0.3619814  -0.1471434), wk =   0.0008264
        k(  261) = (   0.0489820  -0.3676374  -0.0897216), wk =   0.0008264
        k(  262) = (  -0.0587785  -0.4298529  -0.0502441), wk =   0.0008264
        k(  263) = (  -0.1665390  -0.4920685  -0.0107666), wk =   0.0008264
        k(  264) = (  -0.2742995  -0.5542840   0.0287109), wk =   0.0008264
        k(  265) = (  -0.3820599  -0.6164996   0.0681884), wk =   0.0008264
        k(  266) = (   0.5877845  -0.0565596  -0.2871091), wk =   0.0008264
        k(  267) = (   0.4800240  -0.1187751  -0.2476316), wk =   0.0008264
        k(  268) = (   0.3722635  -0.1809907  -0.2081541), wk =   0.0008264
        k(  269) = (   0.2645030  -0.2432063  -0.1686766), wk =   0.0008264
        k(  270) = (   0.1567425  -0.3054218  -0.1291991), wk =   0.0008264
        k(  271) = (   0.0489820  -0.3110778  -0.0717773), wk =   0.0008264
        k(  272) = (  -0.0587785  -0.3732933  -0.0322998), wk =   0.0008264
        k(  273) = (  -0.1665390  -0.4355089   0.0071777), wk =   0.0008264
        k(  274) = (  -0.2742995  -0.4977244   0.0466552), wk =   0.0008264
        k(  275) = (  -0.3820599  -0.5599400   0.0861327), wk =   0.0008264
        k(  276) = (   0.5877845   0.0000000  -0.2691648), wk =   0.0008264
        k(  277) = (   0.4800240  -0.0622156  -0.2296873), wk =   0.0008264
        k(  278) = (   0.3722635  -0.1244311  -0.1902098), wk =   0.0008264
        k(  279) = (   0.2645030  -0.1866467  -0.1507323), wk =   0.0008264
        k(  280) = (   0.1567425  -0.2488622  -0.1112548), wk =   0.0008264
        k(  281) = (   0.0489820  -0.2545182  -0.0538330), wk =   0.0008264
        k(  282) = (  -0.0587785  -0.3167337  -0.0143555), wk =   0.0008264
        k(  283) = (  -0.1665390  -0.3789493   0.0251220), wk =   0.0008264
        k(  284) = (  -0.2742995  -0.4411648   0.0645995), wk =   0.0008264
        k(  285) = (  -0.3820599  -0.5033804   0.1040770), wk =   0.0008264
        k(  286) = (   0.5877845   0.0565596  -0.2512204), wk =   0.0008264
        k(  287) = (   0.4800240  -0.0056560  -0.2117429), wk =   0.0008264
        k(  288) = (   0.3722635  -0.0678715  -0.1722654), wk =   0.0008264
        k(  289) = (   0.2645030  -0.1300871  -0.1327879), wk =   0.0008264
        k(  290) = (   0.1567425  -0.1923026  -0.0933104), wk =   0.0008264
        k(  291) = (   0.0489820  -0.1979586  -0.0358886), wk =   0.0008264
        k(  292) = (  -0.0587785  -0.2601741   0.0035889), wk =   0.0008264
        k(  293) = (  -0.1665390  -0.3223897   0.0430664), wk =   0.0008264
        k(  294) = (  -0.2742995  -0.3846052   0.0825439), wk =   0.0008264
        k(  295) = (  -0.3820599  -0.4468208   0.1220214), wk =   0.0008264
        k(  296) = (   0.5877845   0.1131192  -0.2332761), wk =   0.0008264
        k(  297) = (   0.4800240   0.0509036  -0.1937986), wk =   0.0008264
        k(  298) = (   0.3722635  -0.0113119  -0.1543211), wk =   0.0008264
        k(  299) = (   0.2645030  -0.0735275  -0.1148436), wk =   0.0008264
        k(  300) = (   0.1567425  -0.1357430  -0.0753661), wk =   0.0008264
        k(  301) = (   0.0489820  -0.1413990  -0.0179443), wk =   0.0008264
        k(  302) = (  -0.0587785  -0.2036145   0.0215332), wk =   0.0008264
        k(  303) = (  -0.1665390  -0.2658301   0.0610107), wk =   0.0008264
        k(  304) = (  -0.2742995  -0.3280456   0.1004882), wk =   0.0008264
        k(  305) = (  -0.3820599  -0.3902612   0.1399657), wk =   0.0008264
        k(  306) = (   0.5877845   0.1696788  -0.2153318), wk =   0.0008264
        k(  307) = (   0.4800240   0.1074632  -0.1758543), wk =   0.0008264
        k(  308) = (   0.3722635   0.0452477  -0.1363768), wk =   0.0008264
        k(  309) = (   0.2645030  -0.0169679  -0.0968993), wk =   0.0008264
        k(  310) = (   0.1567425  -0.0791834  -0.0574218), wk =   0.0008264
        k(  311) = (   0.0489820  -0.0848394  -0.0000000), wk =   0.0004132
        k(  312) = (  -0.0587785  -0.1470549   0.0394775), wk =   0.0008264
        k(  313) = (  -0.1665390  -0.2092705   0.0789550), wk =   0.0008264
        k(  314) = (  -0.2742995  -0.2714860   0.1184325), wk =   0.0008264
        k(  315) = (  -0.3820599  -0.3337016   0.1579100), wk =   0.0008264
        k(  316) = (   0.5877845   0.2262384  -0.1973875), wk =   0.0004132
        k(  317) = (   0.0979641   0.0565596   0.0717773), wk =   0.0004132
        k(  318) = (  -0.0097964  -0.0056560   0.1112548), wk =   0.0004132
        k(  319) = (  -0.1175569  -0.0678715   0.1507323), wk =   0.0004132
        k(  320) = (  -0.2253174  -0.1300871   0.1902098), wk =   0.0004132
        k(  321) = (  -0.3330779  -0.1923026   0.2296873), wk =   0.0004132
        k(  322) = (   0.6367666   0.3676374  -0.1256102), wk =   0.0004132
        k(  323) = (   0.5290061   0.3054218  -0.0861327), wk =   0.0004132
        k(  324) = (   0.4212456   0.2432063  -0.0466552), wk =   0.0004132
        k(  325) = (   0.3134851   0.1809907  -0.0071777), wk =   0.0004132
        k(  326) = (   0.2057246   0.1187751   0.0322998), wk =   0.0004132
        k(  327) = (   0.0979641   0.1131192   0.0897216), wk =   0.0008264
        k(  328) = (  -0.0097964   0.0509036   0.1291991), wk =   0.0008264
        k(  329) = (  -0.1175569  -0.0113119   0.1686766), wk =   0.0008264
        k(  330) = (  -0.2253174  -0.0735275   0.2081541), wk =   0.0008264
        k(  331) = (  -0.3330779  -0.1357430   0.2476316), wk =   0.0008264
        k(  332) = (   0.6367666   0.4241970  -0.1076659), wk =   0.0008264
        k(  333) = (   0.5290061   0.3619814  -0.0681884), wk =   0.0008264
        k(  334) = (   0.4212456   0.2997658  -0.0287109), wk =   0.0008264
        k(  335) = (   0.3134851   0.2375503   0.0107666), wk =   0.0008264
        k(  336) = (   0.2057246   0.1753347   0.0502441), wk =   0.0008264
        k(  337) = (   0.0979641   0.1696788   0.1076659), wk =   0.0008264
        k(  338) = (  -0.0097964   0.1074632   0.1471434), wk =   0.0008264
        k(  339) = (  -0.1175569   0.0452477   0.1866209), wk =   0.0008264
        k(  340) = (  -0.2253174  -0.0169679   0.2260984), wk =   0.0008264
        k(  341) = (  -0.3330779  -0.0791834   0.2655759), wk =   0.0008264
        k(  342) = (   0.6367666   0.4807565  -0.0897216), wk =   0.0008264
        k(  343) = (   0.5290061   0.4185410  -0.0502441), wk =   0.0008264
        k(  344) = (   0.4212456   0.3563254  -0.0107666), wk =   0.0008264
        k(  345) = (   0.3134851   0.2941099   0.0287109), wk =   0.0008264
        k(  346) = (   0.2057246   0.2318943   0.0681884), wk =   0.0008264
        k(  347) = (   0.0979641   0.2262384   0.1256102), wk =   0.0008264
        k(  348) = (  -0.0097964   0.1640228   0.1650877), wk =   0.0008264
        k(  349) = (  -0.1175569   0.1018073   0.2045652), wk =   0.0008264
        k(  350) = (  -0.2253174   0.0395917   0.2440427), wk =   0.0008264
        k(  351) = (  -0.3330779  -0.0226238   0.2835202), wk =   0.0008264
        k(  352) = (   0.6367666   0.5373161  -0.0717773), wk =   0.0008264
        k(  353) = (   0.5290061   0.4751006  -0.0322998), wk =   0.0008264
        k(  354) = (   0.4212456   0.4128850   0.0071777), wk =   0.0008264
        k(  355) = (   0.3134851   0.3506695   0.0466552), wk =   0.0008264
        k(  356) = (   0.2057246   0.2884539   0.0861327), wk =   0.0008264
        k(  357) = (   0.0979641   0.2827980   0.1435545), wk =   0.0008264
        k(  358) = (  -0.0097964   0.2205824   0.1830320), wk =   0.0008264
        k(  359) = (  -0.1175569   0.1583669   0.2225095), wk =   0.0008264
        k(  360) = (  -0.2253174   0.0961513   0.2619870), wk =   0.0008264
        k(  361) = (  -0.3330779   0.0339358   0.3014645), wk =   0.0008264
        k(  362) = (   0.6367666   0.5938757  -0.0538330), wk =   0.0008264
        k(  363) = (   0.5290061   0.5316602  -0.0143555), wk =   0.0008264
        k(  364) = (   0.4212456   0.4694446   0.0251220), wk =   0.0008264
        k(  365) = (   0.3134851   0.4072291   0.0645995), wk =   0.0008264
        k(  366) = (   0.2057246   0.3450135   0.1040770), wk =   0.0008264
        k(  367) = (   0.0979641   0.3393576   0.1614989), wk =   0.0008264
        k(  368) = (  -0.0097964   0.2771420   0.2009764), wk =   0.0008264
        k(  369) = (  -0.1175569   0.2149265   0.2404538), wk =   0.0008264
        k(  370) = (  -0.2253174   0.1527109   0.2799313), wk =   0.0008264
        k(  371) = (  -0.3330779   0.0904953   0.3194088), wk =   0.0008264
        k(  372) = (   0.6367666   0.6504353  -0.0358886), wk =   0.0008264
        k(  373) = (   0.5290061   0.5882198   0.0035889), wk =   0.0008264
        k(  374) = (   0.4212456   0.5260042   0.0430664), wk =   0.0008264
        k(  375) = (   0.3134851   0.4637887   0.0825439), wk =   0.0008264
        k(  376) = (   0.2057246   0.4015731   0.1220214), wk =   0.0008264
        k(  377) = (   0.0979641   0.3959172   0.1794432), wk =   0.0008264
        k(  378) = (  -0.0097964   0.3337016   0.2189207), wk =   0.0008264
        k(  379) = (  -0.1175569   0.2714860   0.2583982), wk =   0.0008264
        k(  380) = (  -0.2253174   0.2092705   0.2978757), wk =   0.0008264
        k(  381) = (  -0.3330779   0.1470549   0.3373532), wk =   0.0008264
        k(  382) = (   0.6367666   0.7069949  -0.0179443), wk =   0.0008264
        k(  383) = (   0.5290061   0.6447794   0.0215332), wk =   0.0008264
        k(  384) = (   0.4212456   0.5825638   0.0610107), wk =   0.0008264
        k(  385) = (   0.3134851   0.5203483   0.1004882), wk =   0.0008264
        k(  386) = (   0.2057246   0.4581327   0.1399657), wk =   0.0008264
        k(  387) = (   0.0979641   0.4524767   0.1973875), wk =   0.0008264
        k(  388) = (  -0.0097964   0.3902612   0.2368650), wk =   0.0008264
        k(  389) = (  -0.1175569   0.3280456   0.2763425), wk =   0.0008264
        k(  390) = (  -0.2253174   0.2658301   0.3158200), wk =   0.0008264
        k(  391) = (  -0.3330779   0.2036145   0.3552975), wk =   0.0008264
        k(  392) = (   0.6367666   0.7635545   0.0000000), wk =   0.0008264
        k(  393) = (   0.5290061   0.7013390   0.0394775), wk =   0.0008264
        k(  394) = (   0.4212456   0.6391234   0.0789550), wk =   0.0008264
        k(  395) = (   0.3134851   0.5769079   0.1184325), wk =   0.0008264
        k(  396) = (   0.2057246   0.5146923   0.1579100), wk =   0.0008264
        k(  397) = (   0.0979641   0.5090363   0.2153318), wk =   0.0008264
        k(  398) = (  -0.0097964   0.4468208   0.2548093), wk =   0.0008264
        k(  399) = (  -0.1175569   0.3846052   0.2942868), wk =   0.0008264
        k(  400) = (  -0.2253174   0.3223897   0.3337643), wk =   0.0008264
        k(  401) = (  -0.3330779   0.2601741   0.3732418), wk =   0.0008264
        k(  402) = (   0.6367666   0.8201141   0.0179443), wk =   0.0008264
        k(  403) = (   0.5290061   0.7578986   0.0574218), wk =   0.0008264
        k(  404) = (   0.4212456   0.6956830   0.0968993), wk =   0.0008264
        k(  405) = (   0.3134851   0.6334674   0.1363768), wk =   0.0008264
        k(  406) = (   0.2057246   0.5712519   0.1758543), wk =   0.0008264
        k(  407) = (  -0.0097964  -0.7409307  -0.1220214), wk =   0.0008264
        k(  408) = (  -0.1175569  -0.8031462  -0.0825439), wk =   0.0008264
        k(  409) = (  -0.2253174  -0.8653618  -0.0430664), wk =   0.0008264
        k(  410) = (  -0.3330779  -0.9275773  -0.0035889), wk =   0.0008264
        k(  411) = (   0.6367666  -0.3676374  -0.3588863), wk =   0.0008264
        k(  412) = (   0.5290061  -0.4298529  -0.3194088), wk =   0.0008264
        k(  413) = (   0.4212456  -0.4920685  -0.2799313), wk =   0.0008264
        k(  414) = (   0.3134851  -0.5542840  -0.2404538), wk =   0.0008264
        k(  415) = (   0.2057246  -0.6164996  -0.2009764), wk =   0.0008264
        k(  416) = (   0.0979641  -0.6221555  -0.1435545), wk =   0.0008264
        k(  417) = (  -0.0097964  -0.6843711  -0.1040770), wk =   0.0008264
        k(  418) = (  -0.1175569  -0.7465866  -0.0645995), wk =   0.0008264
        k(  419) = (  -0.2253174  -0.8088022  -0.0251220), wk =   0.0008264
        k(  420) = (  -0.3330779  -0.8710177   0.0143555), wk =   0.0008264
        k(  421) = (   0.6367666  -0.3110778  -0.3409420), wk =   0.0008264
        k(  422) = (   0.5290061  -0.3732933  -0.3014645), wk =   0.0008264
        k(  423) = (   0.4212456  -0.4355089  -0.2619870), wk =   0.0008264
        k(  424) = (   0.3134851  -0.4977244  -0.2225095), wk =   0.0008264
        k(  425) = (   0.2057246  -0.5599400  -0.1830320), wk =   0.0008264
        k(  426) = (   0.0979641  -0.5655959  -0.1256102), wk =   0.0008264
        k(  427) = (  -0.0097964  -0.6278115  -0.0861327), wk =   0.0008264
        k(  428) = (  -0.1175569  -0.6900270  -0.0466552), wk =   0.0008264
        k(  429) = (  -0.2253174  -0.7522426  -0.0071777), wk =   0.0008264
        k(  430) = (  -0.3330779  -0.8144581   0.0322998), wk =   0.0008264
        k(  431) = (   0.6367666  -0.2545182  -0.3229977), wk =   0.0008264
        k(  432) = (   0.5290061  -0.3167337  -0.2835202), wk =   0.0008264
        k(  433) = (   0.4212456  -0.3789493  -0.2440427), wk =   0.0008264
        k(  434) = (   0.3134851  -0.4411648  -0.2045652), wk =   0.0008264
        k(  435) = (   0.2057246  -0.5033804  -0.1650877), wk =   0.0008264
        k(  436) = (   0.0979641  -0.5090363  -0.1076659), wk =   0.0008264
        k(  437) = (  -0.0097964  -0.5712519  -0.0681884), wk =   0.0008264
        k(  438) = (  -0.1175569  -0.6334674  -0.0287109), wk =   0.0008264
        k(  439) = (  -0.2253174  -0.6956830   0.0107666), wk =   0.0008264
        k(  440) = (  -0.3330779  -0.7578986   0.0502441), wk =   0.0008264
        k(  441) = (   0.6367666  -0.1979586  -0.3050534), wk =   0.0008264
        k(  442) = (   0.5290061  -0.2601741  -0.2655759), wk =   0.0008264
        k(  443) = (   0.4212456  -0.3223897  -0.2260984), wk =   0.0008264
        k(  444) = (   0.3134851  -0.3846052  -0.1866209), wk =   0.0008264
        k(  445) = (   0.2057246  -0.4468208  -0.1471434), wk =   0.0008264
        k(  446) = (   0.0979641  -0.4524767  -0.0897216), wk =   0.0008264
        k(  447) = (  -0.0097964  -0.5146923  -0.0502441), wk =   0.0008264
        k(  448) = (  -0.1175569  -0.5769079  -0.0107666), wk =   0.0008264
        k(  449) = (  -0.2253174  -0.6391234   0.0287109), wk =   0.0008264
        k(  450) = (  -0.3330779  -0.7013390   0.0681884), wk =   0.0008264
        k(  451) = (   0.6367666  -0.1413990  -0.2871091), wk =   0.0008264
        k(  452) = (   0.5290061  -0.2036145  -0.2476316), wk =   0.0008264
        k(  453) = (   0.4212456  -0.2658301  -0.2081541), wk =   0.0008264
        k(  454) = (   0.3134851  -0.3280456  -0.1686766), wk =   0.0008264
        k(  455) = (   0.2057246  -0.3902612  -0.1291991), wk =   0.0008264
        k(  456) = (   0.0979641  -0.3959172  -0.0717773), wk =   0.0008264
        k(  457) = (  -0.0097964  -0.4581327  -0.0322998), wk =   0.0008264
        k(  458) = (  -0.1175569  -0.5203483   0.0071777), wk =   0.0008264
        k(  459) = (  -0.2253174  -0.5825638   0.0466552), wk =   0.0008264
        k(  460) = (  -0.3330779  -0.6447794   0.0861327), wk =   0.0008264
        k(  461) = (   0.6367666  -0.0848394  -0.2691648), wk =   0.0008264
        k(  462) = (   0.5290061  -0.1470549  -0.2296873), wk =   0.0008264
        k(  463) = (   0.4212456  -0.2092705  -0.1902098), wk =   0.0008264
        k(  464) = (   0.3134851  -0.2714860  -0.1507323), wk =   0.0008264
        k(  465) = (   0.2057246  -0.3337016  -0.1112548), wk =   0.0008264
        k(  466) = (   0.0979641  -0.3393576  -0.0538330), wk =   0.0008264
        k(  467) = (  -0.0097964  -0.4015731  -0.0143555), wk =   0.0008264
        k(  468) = (  -0.1175569  -0.4637887   0.0251220), wk =   0.0008264
        k(  469) = (  -0.2253174  -0.5260042   0.0645995), wk =   0.0008264
        k(  470) = (  -0.3330779  -0.5882198   0.1040770), wk =   0.0008264
        k(  471) = (   0.6367666  -0.0282798  -0.2512204), wk =   0.0008264
        k(  472) = (   0.5290061  -0.0904953  -0.2117429), wk =   0.0008264
        k(  473) = (   0.4212456  -0.1527109  -0.1722654), wk =   0.0008264
        k(  474) = (   0.3134851  -0.2149265  -0.1327879), wk =   0.0008264
        k(  475) = (   0.2057246  -0.2771420  -0.0933104), wk =   0.0008264
        k(  476) = (   0.0979641  -0.2827980  -0.0358886), wk =   0.0008264
        k(  477) = (  -0.0097964  -0.3450135   0.0035889), wk =   0.0008264
        k(  478) = (  -0.1175569  -0.4072291   0.0430664), wk =   0.0008264
        k(  479) = (  -0.2253174  -0.4694446   0.0825439), wk =   0.0008264
        k(  480) = (  -0.3330779  -0.5316602   0.1220214), wk =   0.0008264
        k(  481) = (   0.6367666   0.0282798  -0.2332761), wk =   0.0008264
        k(  482) = (   0.5290061  -0.0339358  -0.1937986), wk =   0.0008264
        k(  483) = (   0.4212456  -0.0961513  -0.1543211), wk =   0.0008264
        k(  484) = (   0.3134851  -0.1583669  -0.1148436), wk =   0.0008264
        k(  485) = (   0.2057246  -0.2205824  -0.0753661), wk =   0.0008264
        k(  486) = (   0.0979641  -0.2262384  -0.0179443), wk =   0.0008264
        k(  487) = (  -0.0097964  -0.2884539   0.0215332), wk =   0.0008264
        k(  488) = (  -0.1175569  -0.3506695   0.0610107), wk =   0.0008264
        k(  489) = (  -0.2253174  -0.4128850   0.1004882), wk =   0.0008264
        k(  490) = (  -0.3330779  -0.4751006   0.1399657), wk =   0.0008264
        k(  491) = (   0.6367666   0.0848394  -0.2153318), wk =   0.0008264
        k(  492) = (   0.5290061   0.0226238  -0.1758543), wk =   0.0008264
        k(  493) = (   0.4212456  -0.0395917  -0.1363768), wk =   0.0008264
        k(  494) = (   0.3134851  -0.1018073  -0.0968993), wk =   0.0008264
        k(  495) = (   0.2057246  -0.1640228  -0.0574218), wk =   0.0008264
        k(  496) = (   0.0979641  -0.1696788  -0.0000000), wk =   0.0004132
        k(  497) = (  -0.0097964  -0.2318943   0.0394775), wk =   0.0008264
        k(  498) = (  -0.1175569  -0.2941099   0.0789550), wk =   0.0008264
        k(  499) = (  -0.2253174  -0.3563254   0.1184325), wk =   0.0008264
        k(  500) = (  -0.3330779  -0.4185410   0.1579100), wk =   0.0008264
        k(  501) = (   0.6367666   0.1413990  -0.1973875), wk =   0.0004132
        k(  502) = (   0.1469461   0.0848394   0.1076659), wk =   0.0004132
        k(  503) = (   0.0391856   0.0226238   0.1471434), wk =   0.0004132
        k(  504) = (  -0.0685749  -0.0395917   0.1866209), wk =   0.0004132
        k(  505) = (  -0.1763354  -0.1018073   0.2260984), wk =   0.0004132
        k(  506) = (  -0.2840959  -0.1640228   0.2655759), wk =   0.0004132
        k(  507) = (   0.6857486   0.3959172  -0.0897216), wk =   0.0004132
        k(  508) = (   0.5779881   0.3337016  -0.0502441), wk =   0.0004132
        k(  509) = (   0.4702276   0.2714860  -0.0107666), wk =   0.0004132
        k(  510) = (   0.3624671   0.2092705   0.0287109), wk =   0.0004132
        k(  511) = (   0.2547066   0.1470549   0.0681884), wk =   0.0004132
        k(  512) = (   0.1469461   0.1413990   0.1256102), wk =   0.0008264
        k(  513) = (   0.0391856   0.0791834   0.1650877), wk =   0.0008264
        k(  514) = (  -0.0685749   0.0169679   0.2045652), wk =   0.0008264
        k(  515) = (  -0.1763354  -0.0452477   0.2440427), wk =   0.0008264
        k(  516) = (  -0.2840959  -0.1074632   0.2835202), wk =   0.0008264
        k(  517) = (   0.6857486   0.4524767  -0.0717773), wk =   0.0008264
        k(  518) = (   0.5779881   0.3902612  -0.0322998), wk =   0.0008264
        k(  519) = (   0.4702276   0.3280456   0.0071777), wk =   0.0008264
        k(  520) = (   0.3624671   0.2658301   0.0466552), wk =   0.0008264
        k(  521) = (   0.2547066   0.2036145   0.0861327), wk =   0.0008264
        k(  522) = (   0.1469461   0.1979586   0.1435545), wk =   0.0008264
        k(  523) = (   0.0391856   0.1357430   0.1830320), wk =   0.0008264
        k(  524) = (  -0.0685749   0.0735275   0.2225095), wk =   0.0008264
        k(  525) = (  -0.1763354   0.0113119   0.2619870), wk =   0.0008264
        k(  526) = (  -0.2840959  -0.0509036   0.3014645), wk =   0.0008264
        k(  527) = (   0.6857486   0.5090363  -0.0538330), wk =   0.0008264
        k(  528) = (   0.5779881   0.4468208  -0.0143555), wk =   0.0008264
        k(  529) = (   0.4702276   0.3846052   0.0251220), wk =   0.0008264
        k(  530) = (   0.3624671   0.3223897   0.0645995), wk =   0.0008264
        k(  531) = (   0.2547066   0.2601741   0.1040770), wk =   0.0008264
        k(  532) = (   0.1469461   0.2545182   0.1614989), wk =   0.0008264
        k(  533) = (   0.0391856   0.1923026   0.2009764), wk =   0.0008264
        k(  534) = (  -0.0685749   0.1300871   0.2404538), wk =   0.0008264
        k(  535) = (  -0.1763354   0.0678715   0.2799313), wk =   0.0008264
        k(  536) = (  -0.2840959   0.0056560   0.3194088), wk =   0.0008264
        k(  537) = (   0.6857486   0.5655959  -0.0358886), wk =   0.0008264
        k(  538) = (   0.5779881   0.5033804   0.0035889), wk =   0.0008264
        k(  539) = (   0.4702276   0.4411648   0.0430664), wk =   0.0008264
        k(  540) = (   0.3624671   0.3789493   0.0825439), wk =   0.0008264
        k(  541) = (   0.2547066   0.3167337   0.1220214), wk =   0.0008264
        k(  542) = (   0.1469461   0.3110778   0.1794432), wk =   0.0008264
        k(  543) = (   0.0391856   0.2488622   0.2189207), wk =   0.0008264
        k(  544) = (  -0.0685749   0.1866467   0.2583982), wk =   0.0008264
        k(  545) = (  -0.1763354   0.1244311   0.2978757), wk =   0.0008264
        k(  546) = (  -0.2840959   0.0622156   0.3373532), wk =   0.0008264
        k(  547) = (   0.6857486   0.6221555  -0.0179443), wk =   0.0008264
        k(  548) = (   0.5779881   0.5599400   0.0215332), wk =   0.0008264
        k(  549) = (   0.4702276   0.4977244   0.0610107), wk =   0.0008264
        k(  550) = (   0.3624671   0.4355089   0.1004882), wk =   0.0008264
        k(  551) = (   0.2547066   0.3732933   0.1399657), wk =   0.0008264
        k(  552) = (   0.1469461   0.3676374   0.1973875), wk =   0.0008264
        k(  553) = (   0.0391856   0.3054218   0.2368650), wk =   0.0008264
        k(  554) = (  -0.0685749   0.2432063   0.2763425), wk =   0.0008264
        k(  555) = (  -0.1763354   0.1809907   0.3158200), wk =   0.0008264
        k(  556) = (  -0.2840959   0.1187751   0.3552975), wk =   0.0008264
        k(  557) = (   0.6857486   0.6787151   0.0000000), wk =   0.0008264
        k(  558) = (   0.5779881   0.6164996   0.0394775), wk =   0.0008264
        k(  559) = (   0.4702276   0.5542840   0.0789550), wk =   0.0008264
        k(  560) = (   0.3624671   0.4920685   0.1184325), wk =   0.0008264
        k(  561) = (   0.2547066   0.4298529   0.1579100), wk =   0.0008264
        k(  562) = (   0.1469461   0.4241970   0.2153318), wk =   0.0008264
        k(  563) = (   0.0391856   0.3619814   0.2548093), wk =   0.0008264
        k(  564) = (  -0.0685749   0.2997658   0.2942868), wk =   0.0008264
        k(  565) = (  -0.1763354   0.2375503   0.3337643), wk =   0.0008264
        k(  566) = (  -0.2840959   0.1753347   0.3732418), wk =   0.0008264
        k(  567) = (   0.6857486   0.7352747   0.0179443), wk =   0.0008264
        k(  568) = (   0.5779881   0.6730592   0.0574218), wk =   0.0008264
        k(  569) = (   0.4702276   0.6108436   0.0968993), wk =   0.0008264
        k(  570) = (   0.3624671   0.5486281   0.1363768), wk =   0.0008264
        k(  571) = (   0.2547066   0.4864125   0.1758543), wk =   0.0008264
        k(  572) = (   0.1469461   0.4807565   0.2332761), wk =   0.0008264
        k(  573) = (   0.0391856   0.4185410   0.2727536), wk =   0.0008264
        k(  574) = (  -0.0685749   0.3563254   0.3122311), wk =   0.0008264
        k(  575) = (  -0.1763354   0.2941099   0.3517086), wk =   0.0008264
        k(  576) = (  -0.2840959   0.2318943   0.3911861), wk =   0.0008264
        k(  577) = (   0.6857486   0.7918343   0.0358886), wk =   0.0008264
        k(  578) = (   0.5779881   0.7296188   0.0753661), wk =   0.0008264
        k(  579) = (   0.4702276   0.6674032   0.1148436), wk =   0.0008264
        k(  580) = (   0.3624671   0.6051876   0.1543211), wk =   0.0008264
        k(  581) = (   0.2547066   0.5429721   0.1937986), wk =   0.0008264
        k(  582) = (   0.0391856  -0.7692105  -0.1040770), wk =   0.0008264
        k(  583) = (  -0.0685749  -0.8314260  -0.0645995), wk =   0.0008264
        k(  584) = (  -0.1763354  -0.8936416  -0.0251220), wk =   0.0008264
        k(  585) = (  -0.2840959  -0.9558571   0.0143555), wk =   0.0008264
        k(  586) = (   0.6857486  -0.3959172  -0.3409420), wk =   0.0008264
        k(  587) = (   0.5779881  -0.4581327  -0.3014645), wk =   0.0008264
        k(  588) = (   0.4702276  -0.5203483  -0.2619870), wk =   0.0008264
        k(  589) = (   0.3624671  -0.5825638  -0.2225095), wk =   0.0008264
        k(  590) = (   0.2547066  -0.6447794  -0.1830320), wk =   0.0008264
        k(  591) = (   0.1469461  -0.6504353  -0.1256102), wk =   0.0008264
        k(  592) = (   0.0391856  -0.7126509  -0.0861327), wk =   0.0008264
        k(  593) = (  -0.0685749  -0.7748664  -0.0466552), wk =   0.0008264
        k(  594) = (  -0.1763354  -0.8370820  -0.0071777), wk =   0.0008264
        k(  595) = (  -0.2840959  -0.8992975   0.0322998), wk =   0.0008264
        k(  596) = (   0.6857486  -0.3393576  -0.3229977), wk =   0.0008264
        k(  597) = (   0.5779881  -0.4015731  -0.2835202), wk =   0.0008264
        k(  598) = (   0.4702276  -0.4637887  -0.2440427), wk =   0.0008264
        k(  599) = (   0.3624671  -0.5260042  -0.2045652), wk =   0.0008264
        k(  600) = (   0.2547066  -0.5882198  -0.1650877), wk =   0.0008264
        k(  601) = (   0.1469461  -0.5938757  -0.1076659), wk =   0.0008264
        k(  602) = (   0.0391856  -0.6560913  -0.0681884), wk =   0.0008264
        k(  603) = (  -0.0685749  -0.7183068  -0.0287109), wk =   0.0008264
        k(  604) = (  -0.1763354  -0.7805224   0.0107666), wk =   0.0008264
        k(  605) = (  -0.2840959  -0.8427379   0.0502441), wk =   0.0008264
        k(  606) = (   0.6857486  -0.2827980  -0.3050534), wk =   0.0008264
        k(  607) = (   0.5779881  -0.3450135  -0.2655759), wk =   0.0008264
        k(  608) = (   0.4702276  -0.4072291  -0.2260984), wk =   0.0008264
        k(  609) = (   0.3624671  -0.4694446  -0.1866209), wk =   0.0008264
        k(  610) = (   0.2547066  -0.5316602  -0.1471434), wk =   0.0008264
        k(  611) = (   0.1469461  -0.5373161  -0.0897216), wk =   0.0008264
        k(  612) = (   0.0391856  -0.5995317  -0.0502441), wk =   0.0008264
        k(  613) = (  -0.0685749  -0.6617472  -0.0107666), wk =   0.0008264
        k(  614) = (  -0.1763354  -0.7239628   0.0287109), wk =   0.0008264
        k(  615) = (  -0.2840959  -0.7861783   0.0681884), wk =   0.0008264
        k(  616) = (   0.6857486  -0.2262384  -0.2871091), wk =   0.0008264
        k(  617) = (   0.5779881  -0.2884539  -0.2476316), wk =   0.0008264
        k(  618) = (   0.4702276  -0.3506695  -0.2081541), wk =   0.0008264
        k(  619) = (   0.3624671  -0.4128850  -0.1686766), wk =   0.0008264
        k(  620) = (   0.2547066  -0.4751006  -0.1291991), wk =   0.0008264
        k(  621) = (   0.1469461  -0.4807565  -0.0717773), wk =   0.0008264
        k(  622) = (   0.0391856  -0.5429721  -0.0322998), wk =   0.0008264
        k(  623) = (  -0.0685749  -0.6051876   0.0071777), wk =   0.0008264
        k(  624) = (  -0.1763354  -0.6674032   0.0466552), wk =   0.0008264
        k(  625) = (  -0.2840959  -0.7296188   0.0861327), wk =   0.0008264
        k(  626) = (   0.6857486  -0.1696788  -0.2691648), wk =   0.0008264
        k(  627) = (   0.5779881  -0.2318943  -0.2296873), wk =   0.0008264
        k(  628) = (   0.4702276  -0.2941099  -0.1902098), wk =   0.0008264
        k(  629) = (   0.3624671  -0.3563254  -0.1507323), wk =   0.0008264
        k(  630) = (   0.2547066  -0.4185410  -0.1112548), wk =   0.0008264
        k(  631) = (   0.1469461  -0.4241970  -0.0538330), wk =   0.0008264
        k(  632) = (   0.0391856  -0.4864125  -0.0143555), wk =   0.0008264
        k(  633) = (  -0.0685749  -0.5486281   0.0251220), wk =   0.0008264
        k(  634) = (  -0.1763354  -0.6108436   0.0645995), wk =   0.0008264
        k(  635) = (  -0.2840959  -0.6730592   0.1040770), wk =   0.0008264
        k(  636) = (   0.6857486  -0.1131192  -0.2512204), wk =   0.0008264
        k(  637) = (   0.5779881  -0.1753347  -0.2117429), wk =   0.0008264
        k(  638) = (   0.4702276  -0.2375503  -0.1722654), wk =   0.0008264
        k(  639) = (   0.3624671  -0.2997658  -0.1327879), wk =   0.0008264
        k(  640) = (   0.2547066  -0.3619814  -0.0933104), wk =   0.0008264
        k(  641) = (   0.1469461  -0.3676374  -0.0358886), wk =   0.0008264
        k(  642) = (   0.0391856  -0.4298529   0.0035889), wk =   0.0008264
        k(  643) = (  -0.0685749  -0.4920685   0.0430664), wk =   0.0008264
        k(  644) = (  -0.1763354  -0.5542840   0.0825439), wk =   0.0008264
        k(  645) = (  -0.2840959  -0.6164996   0.1220214), wk =   0.0008264
        k(  646) = (   0.6857486  -0.0565596  -0.2332761), wk =   0.0008264
        k(  647) = (   0.5779881  -0.1187751  -0.1937986), wk =   0.0008264
        k(  648) = (   0.4702276  -0.1809907  -0.1543211), wk =   0.0008264
        k(  649) = (   0.3624671  -0.2432063  -0.1148436), wk =   0.0008264
        k(  650) = (   0.2547066  -0.3054218  -0.0753661), wk =   0.0008264
        k(  651) = (   0.1469461  -0.3110778  -0.0179443), wk =   0.0008264
        k(  652) = (   0.0391856  -0.3732933   0.0215332), wk =   0.0008264
        k(  653) = (  -0.0685749  -0.4355089   0.0610107), wk =   0.0008264
        k(  654) = (  -0.1763354  -0.4977244   0.1004882), wk =   0.0008264
        k(  655) = (  -0.2840959  -0.5599400   0.1399657), wk =   0.0008264
        k(  656) = (   0.6857486   0.0000000  -0.2153318), wk =   0.0008264
        k(  657) = (   0.5779881  -0.0622156  -0.1758543), wk =   0.0008264
        k(  658) = (   0.4702276  -0.1244311  -0.1363768), wk =   0.0008264
        k(  659) = (   0.3624671  -0.1866467  -0.0968993), wk =   0.0008264
        k(  660) = (   0.2547066  -0.2488622  -0.0574218), wk =   0.0008264
        k(  661) = (   0.1469461  -0.2545182  -0.0000000), wk =   0.0004132
        k(  662) = (   0.0391856  -0.3167337   0.0394775), wk =   0.0008264
        k(  663) = (  -0.0685749  -0.3789493   0.0789550), wk =   0.0008264
        k(  664) = (  -0.1763354  -0.4411648   0.1184325), wk =   0.0008264
        k(  665) = (  -0.2840959  -0.5033804   0.1579100), wk =   0.0008264
        k(  666) = (   0.6857486   0.0565596  -0.1973875), wk =   0.0004132
        k(  667) = (   0.1959282   0.1131192   0.1435545), wk =   0.0004132
        k(  668) = (   0.0881677   0.0509036   0.1830320), wk =   0.0004132
        k(  669) = (  -0.0195928  -0.0113119   0.2225095), wk =   0.0004132
        k(  670) = (  -0.1273533  -0.0735275   0.2619870), wk =   0.0004132
        k(  671) = (  -0.2351138  -0.1357430   0.3014645), wk =   0.0004132
        k(  672) = (   0.7347307   0.4241970  -0.0538330), wk =   0.0004132
        k(  673) = (   0.6269702   0.3619814  -0.0143555), wk =   0.0004132
        k(  674) = (   0.5192097   0.2997658   0.0251220), wk =   0.0004132
        k(  675) = (   0.4114492   0.2375503   0.0645995), wk =   0.0004132
        k(  676) = (   0.3036887   0.1753347   0.1040770), wk =   0.0004132
        k(  677) = (   0.1959282   0.1696788   0.1614989), wk =   0.0008264
        k(  678) = (   0.0881677   0.1074632   0.2009764), wk =   0.0008264
        k(  679) = (  -0.0195928   0.0452477   0.2404538), wk =   0.0008264
        k(  680) = (  -0.1273533  -0.0169679   0.2799313), wk =   0.0008264
        k(  681) = (  -0.2351138  -0.0791834   0.3194088), wk =   0.0008264
        k(  682) = (   0.7347307   0.4807565  -0.0358886), wk =   0.0008264
        k(  683) = (   0.6269702   0.4185410   0.0035889), wk =   0.0008264
        k(  684) = (   0.5192097   0.3563254   0.0430664), wk =   0.0008264
        k(  685) = (   0.4114492   0.2941099   0.0825439), wk =   0.0008264
        k(  686) = (   0.3036887   0.2318943   0.1220214), wk =   0.0008264
        k(  687) = (   0.1959282   0.2262384   0.1794432), wk =   0.0008264
        k(  688) = (   0.0881677   0.1640228   0.2189207), wk =   0.0008264
        k(  689) = (  -0.0195928   0.1018073   0.2583982), wk =   0.0008264
        k(  690) = (  -0.1273533   0.0395917   0.2978757), wk =   0.0008264
        k(  691) = (  -0.2351138  -0.0226238   0.3373532), wk =   0.0008264
        k(  692) = (   0.7347307   0.5373161  -0.0179443), wk =   0.0008264
        k(  693) = (   0.6269702   0.4751006   0.0215332), wk =   0.0008264
        k(  694) = (   0.5192097   0.4128850   0.0610107), wk =   0.0008264
        k(  695) = (   0.4114492   0.3506695   0.1004882), wk =   0.0008264
        k(  696) = (   0.3036887   0.2884539   0.1399657), wk =   0.0008264
        k(  697) = (   0.1959282   0.2827980   0.1973875), wk =   0.0008264
        k(  698) = (   0.0881677   0.2205824   0.2368650), wk =   0.0008264
        k(  699) = (  -0.0195928   0.1583669   0.2763425), wk =   0.0008264
        k(  700) = (  -0.1273533   0.0961513   0.3158200), wk =   0.0008264
        k(  701) = (  -0.2351138   0.0339358   0.3552975), wk =   0.0008264
        k(  702) = (   0.7347307   0.5938757   0.0000000), wk =   0.0008264
        k(  703) = (   0.6269702   0.5316602   0.0394775), wk =   0.0008264
        k(  704) = (   0.5192097   0.4694446   0.0789550), wk =   0.0008264
        k(  705) = (   0.4114492   0.4072291   0.1184325), wk =   0.0008264
        k(  706) = (   0.3036887   0.3450135   0.1579100), wk =   0.0008264
        k(  707) = (   0.1959282   0.3393576   0.2153318), wk =   0.0008264
        k(  708) = (   0.0881677   0.2771420   0.2548093), wk =   0.0008264
        k(  709) = (  -0.0195928   0.2149265   0.2942868), wk =   0.0008264
        k(  710) = (  -0.1273533   0.1527109   0.3337643), wk =   0.0008264
        k(  711) = (  -0.2351138   0.0904953   0.3732418), wk =   0.0008264
        k(  712) = (   0.7347307   0.6504353   0.0179443), wk =   0.0008264
        k(  713) = (   0.6269702   0.5882198   0.0574218), wk =   0.0008264
        k(  714) = (   0.5192097   0.5260042   0.0968993), wk =   0.0008264
        k(  715) = (   0.4114492   0.4637887   0.1363768), wk =   0.0008264
        k(  716) = (   0.3036887   0.4015731   0.1758543), wk =   0.0008264
        k(  717) = (   0.1959282   0.3959172   0.2332761), wk =   0.0008264
        k(  718) = (   0.0881677   0.3337016   0.2727536), wk =   0.0008264
        k(  719) = (  -0.0195928   0.2714860   0.3122311), wk =   0.0008264
        k(  720) = (  -0.1273533   0.2092705   0.3517086), wk =   0.0008264
        k(  721) = (  -0.2351138   0.1470549   0.3911861), wk =   0.0008264
        k(  722) = (   0.7347307   0.7069949   0.0358886), wk =   0.0008264
        k(  723) = (   0.6269702   0.6447794   0.0753661), wk =   0.0008264
        k(  724) = (   0.5192097   0.5825638   0.1148436), wk =   0.0008264
        k(  725) = (   0.4114492   0.5203483   0.1543211), wk =   0.0008264
        k(  726) = (   0.3036887   0.4581327   0.1937986), wk =   0.0008264
        k(  727) = (   0.1959282   0.4524767   0.2512204), wk =   0.0008264
        k(  728) = (   0.0881677   0.3902612   0.2906979), wk =   0.0008264
        k(  729) = (  -0.0195928   0.3280456   0.3301754), wk =   0.0008264
        k(  730) = (  -0.1273533   0.2658301   0.3696529), wk =   0.0008264
        k(  731) = (  -0.2351138   0.2036145   0.4091304), wk =   0.0008264
        k(  732) = (   0.7347307   0.7635545   0.0538330), wk =   0.0008264
        k(  733) = (   0.6269702   0.7013390   0.0933104), wk =   0.0008264
        k(  734) = (   0.5192097   0.6391234   0.1327879), wk =   0.0008264
        k(  735) = (   0.4114492   0.5769079   0.1722654), wk =   0.0008264
        k(  736) = (   0.3036887   0.5146923   0.2117429), wk =   0.0008264
        k(  737) = (   0.0881677  -0.7974903  -0.0861327), wk =   0.0008264
        k(  738) = (  -0.0195928  -0.8597058  -0.0466552), wk =   0.0008264
        k(  739) = (  -0.1273533  -0.9219214  -0.0071777), wk =   0.0008264
        k(  740) = (  -0.2351138  -0.9841369   0.0322998), wk =   0.0008264
        k(  741) = (   0.7347307  -0.4241970  -0.3229977), wk =   0.0008264
        k(  742) = (   0.6269702  -0.4864125  -0.2835202), wk =   0.0008264
        k(  743) = (   0.5192097  -0.5486281  -0.2440427), wk =   0.0008264
        k(  744) = (   0.4114492  -0.6108436  -0.2045652), wk =   0.0008264
        k(  745) = (   0.3036887  -0.6730592  -0.1650877), wk =   0.0008264
        k(  746) = (   0.1959282  -0.6787151  -0.1076659), wk =   0.0008264
        k(  747) = (   0.0881677  -0.7409307  -0.0681884), wk =   0.0008264
        k(  748) = (  -0.0195928  -0.8031462  -0.0287109), wk =   0.0008264
        k(  749) = (  -0.1273533  -0.8653618   0.0107666), wk =   0.0008264
        k(  750) = (  -0.2351138  -0.9275773   0.0502441), wk =   0.0008264
        k(  751) = (   0.7347307  -0.3676374  -0.3050534), wk =   0.0008264
        k(  752) = (   0.6269702  -0.4298529  -0.2655759), wk =   0.0008264
        k(  753) = (   0.5192097  -0.4920685  -0.2260984), wk =   0.0008264
        k(  754) = (   0.4114492  -0.5542840  -0.1866209), wk =   0.0008264
        k(  755) = (   0.3036887  -0.6164996  -0.1471434), wk =   0.0008264
        k(  756) = (   0.1959282  -0.6221555  -0.0897216), wk =   0.0008264
        k(  757) = (   0.0881677  -0.6843711  -0.0502441), wk =   0.0008264
        k(  758) = (  -0.0195928  -0.7465866  -0.0107666), wk =   0.0008264
        k(  759) = (  -0.1273533  -0.8088022   0.0287109), wk =   0.0008264
        k(  760) = (  -0.2351138  -0.8710177   0.0681884), wk =   0.0008264
        k(  761) = (   0.7347307  -0.3110778  -0.2871091), wk =   0.0008264
        k(  762) = (   0.6269702  -0.3732933  -0.2476316), wk =   0.0008264
        k(  763) = (   0.5192097  -0.4355089  -0.2081541), wk =   0.0008264
        k(  764) = (   0.4114492  -0.4977244  -0.1686766), wk =   0.0008264
        k(  765) = (   0.3036887  -0.5599400  -0.1291991), wk =   0.0008264
        k(  766) = (   0.1959282  -0.5655959  -0.0717773), wk =   0.0008264
        k(  767) = (   0.0881677  -0.6278115  -0.0322998), wk =   0.0008264
        k(  768) = (  -0.0195928  -0.6900270   0.0071777), wk =   0.0008264
        k(  769) = (  -0.1273533  -0.7522426   0.0466552), wk =   0.0008264
        k(  770) = (  -0.2351138  -0.8144581   0.0861327), wk =   0.0008264
        k(  771) = (   0.7347307  -0.2545182  -0.2691648), wk =   0.0008264
        k(  772) = (   0.6269702  -0.3167337  -0.2296873), wk =   0.0008264
        k(  773) = (   0.5192097  -0.3789493  -0.1902098), wk =   0.0008264
        k(  774) = (   0.4114492  -0.4411648  -0.1507323), wk =   0.0008264
        k(  775) = (   0.3036887  -0.5033804  -0.1112548), wk =   0.0008264
        k(  776) = (   0.1959282  -0.5090363  -0.0538330), wk =   0.0008264
        k(  777) = (   0.0881677  -0.5712519  -0.0143555), wk =   0.0008264
        k(  778) = (  -0.0195928  -0.6334674   0.0251220), wk =   0.0008264
        k(  779) = (  -0.1273533  -0.6956830   0.0645995), wk =   0.0008264
        k(  780) = (  -0.2351138  -0.7578986   0.1040770), wk =   0.0008264
        k(  781) = (   0.7347307  -0.1979586  -0.2512204), wk =   0.0008264
        k(  782) = (   0.6269702  -0.2601741  -0.2117429), wk =   0.0008264
        k(  783) = (   0.5192097  -0.3223897  -0.1722654), wk =   0.0008264
        k(  784) = (   0.4114492  -0.3846052  -0.1327879), wk =   0.0008264
        k(  785) = (   0.3036887  -0.4468208  -0.0933104), wk =   0.0008264
        k(  786) = (   0.1959282  -0.4524767  -0.0358886), wk =   0.0008264
        k(  787) = (   0.0881677  -0.5146923   0.0035889), wk =   0.0008264
        k(  788) = (  -0.0195928  -0.5769079   0.0430664), wk =   0.0008264
        k(  789) = (  -0.1273533  -0.6391234   0.0825439), wk =   0.0008264
        k(  790) = (  -0.2351138  -0.7013390   0.1220214), wk =   0.0008264
        k(  791) = (   0.7347307  -0.1413990  -0.2332761), wk =   0.0008264
        k(  792) = (   0.6269702  -0.2036145  -0.1937986), wk =   0.0008264
        k(  793) = (   0.5192097  -0.2658301  -0.1543211), wk =   0.0008264
        k(  794) = (   0.4114492  -0.3280456  -0.1148436), wk =   0.0008264
        k(  795) = (   0.3036887  -0.3902612  -0.0753661), wk =   0.0008264
        k(  796) = (   0.1959282  -0.3959172  -0.0179443), wk =   0.0008264
        k(  797) = (   0.0881677  -0.4581327   0.0215332), wk =   0.0008264
        k(  798) = (  -0.0195928  -0.5203483   0.0610107), wk =   0.0008264
        k(  799) = (  -0.1273533  -0.5825638   0.1004882), wk =   0.0008264
        k(  800) = (  -0.2351138  -0.6447794   0.1399657), wk =   0.0008264
        k(  801) = (   0.7347307  -0.0848394  -0.2153318), wk =   0.0008264
        k(  802) = (   0.6269702  -0.1470549  -0.1758543), wk =   0.0008264
        k(  803) = (   0.5192097  -0.2092705  -0.1363768), wk =   0.0008264
        k(  804) = (   0.4114492  -0.2714860  -0.0968993), wk =   0.0008264
        k(  805) = (   0.3036887  -0.3337016  -0.0574218), wk =   0.0008264
        k(  806) = (   0.1959282  -0.3393576  -0.0000000), wk =   0.0004132
        k(  807) = (   0.0881677  -0.4015731   0.0394775), wk =   0.0008264
        k(  808) = (  -0.0195928  -0.4637887   0.0789550), wk =   0.0008264
        k(  809) = (  -0.1273533  -0.5260042   0.1184325), wk =   0.0008264
        k(  810) = (  -0.2351138  -0.5882198   0.1579100), wk =   0.0008264
        k(  811) = (   0.7347307  -0.0282798  -0.1973875), wk =   0.0004132
        k(  812) = (   0.2449102   0.1413990   0.1794432), wk =   0.0004132
        k(  813) = (   0.1371497   0.0791834   0.2189207), wk =   0.0004132
        k(  814) = (   0.0293892   0.0169679   0.2583982), wk =   0.0004132
        k(  815) = (  -0.0783713  -0.0452477   0.2978757), wk =   0.0004132
        k(  816) = (  -0.1861318  -0.1074632   0.3373532), wk =   0.0004132
        k(  817) = (   0.7837127   0.4524767  -0.0179443), wk =   0.0004132
        k(  818) = (   0.6759522   0.3902612   0.0215332), wk =   0.0004132
        k(  819) = (   0.5681917   0.3280456   0.0610107), wk =   0.0004132
        k(  820) = (   0.4604312   0.2658301   0.1004882), wk =   0.0004132
        k(  821) = (   0.3526707   0.2036145   0.1399657), wk =   0.0004132
        k(  822) = (   0.2449102   0.1979586   0.1973875), wk =   0.0008264
        k(  823) = (   0.1371497   0.1357430   0.2368650), wk =   0.0008264
        k(  824) = (   0.0293892   0.0735275   0.2763425), wk =   0.0008264
        k(  825) = (  -0.0783713   0.0113119   0.3158200), wk =   0.0008264
        k(  826) = (  -0.1861318  -0.0509036   0.3552975), wk =   0.0008264
        k(  827) = (   0.7837127   0.5090363   0.0000000), wk =   0.0008264
        k(  828) = (   0.6759522   0.4468208   0.0394775), wk =   0.0008264
        k(  829) = (   0.5681917   0.3846052   0.0789550), wk =   0.0008264
        k(  830) = (   0.4604312   0.3223897   0.1184325), wk =   0.0008264
        k(  831) = (   0.3526707   0.2601741   0.1579100), wk =   0.0008264
        k(  832) = (   0.2449102   0.2545182   0.2153318), wk =   0.0008264
        k(  833) = (   0.1371497   0.1923026   0.2548093), wk =   0.0008264
        k(  834) = (   0.0293892   0.1300871   0.2942868), wk =   0.0008264
        k(  835) = (  -0.0783713   0.0678715   0.3337643), wk =   0.0008264
        k(  836) = (  -0.1861318   0.0056560   0.3732418), wk =   0.0008264
        k(  837) = (   0.7837127   0.5655959   0.0179443), wk =   0.0008264
        k(  838) = (   0.6759522   0.5033804   0.0574218), wk =   0.0008264
        k(  839) = (   0.5681917   0.4411648   0.0968993), wk =   0.0008264
        k(  840) = (   0.4604312   0.3789493   0.1363768), wk =   0.0008264
        k(  841) = (   0.3526707   0.3167337   0.1758543), wk =   0.0008264
        k(  842) = (   0.2449102   0.3110778   0.2332761), wk =   0.0008264
        k(  843) = (   0.1371497   0.2488622   0.2727536), wk =   0.0008264
        k(  844) = (   0.0293892   0.1866467   0.3122311), wk =   0.0008264
        k(  845) = (  -0.0783713   0.1244311   0.3517086), wk =   0.0008264
        k(  846) = (  -0.1861318   0.0622156   0.3911861), wk =   0.0008264
        k(  847) = (   0.7837127   0.6221555   0.0358886), wk =   0.0008264
        k(  848) = (   0.6759522   0.5599400   0.0753661), wk =   0.0008264
        k(  849) = (   0.5681917   0.4977244   0.1148436), wk =   0.0008264
        k(  850) = (   0.4604312   0.4355089   0.1543211), wk =   0.0008264
        k(  851) = (   0.3526707   0.3732933   0.1937986), wk =   0.0008264
        k(  852) = (   0.2449102   0.3676374   0.2512204), wk =   0.0008264
[...]
    58.6910  58.6910  59.4016  59.4016  69.4899  69.4899  70.3106  70.3106
    70.4266  70.4266  71.0302  71.0302  72.4668  72.4668  72.5174  72.5174
    85.2134  85.2134  85.5804  85.5804  86.1406  86.1406  86.4668  86.4668
    90.4015  90.4015  90.8230  90.8230  91.2922  91.2922  91.5176  91.5176
    92.1913  92.1913  92.8324  92.8324  93.0377  93.0377  93.5890  93.5890
   121.8869 121.8869 122.3102 122.3102

     occupation numbers 
     1.0000   1.0000   1.0000   1.0000   1.0000   1.0000   1.0000   1.0000
     1.0000   1.0000   1.0000   1.0000   1.0000   1.0000   1.0000   1.0000
     1.0000   1.0000   1.0000   1.0000   1.0000   1.0000   1.0000   1.0000
     1.0000   1.0000   1.0000   1.0000   1.0000   1.0000   1.0000   1.0000
     1.0000   1.0000   1.0000   1.0000   1.0000   1.0000   1.0000   1.0000
     1.0000   1.0000   1.0000   1.0000   1.0000   1.0000   1.0000   1.0000
     0.0000   0.0000   0.0000   0.0000

          k = 0.9209-0.6561-0.1759 (   341 PWs)   bands (ev):

    52.5333  52.5333  53.0876  53.0876  56.9650  56.9650  58.3391  58.3391
    59.9885  59.9885  60.6692  60.6692  68.3547  68.3547  69.6468  69.6468
    71.1903  71.1903  71.5748  71.5748  72.7518  72.7518  73.1205  73.1205
    84.1016  84.1016  84.4409  84.4409  86.6408  86.6408  86.8749  86.8749
    90.3376  90.3376  90.8794  90.8794  91.1144  91.1144  91.3301  91.3301
    91.6020  91.6020  92.1394  92.1394  93.4651  93.4651  93.9946  93.9946
   121.3815 121.3815 121.5021 121.5021

     occupation numbers 
     1.0000   1.0000   1.0000   1.0000   1.0000   1.0000   1.0000   1.0000
     1.0000   1.0000   1.0000   1.0000   1.0000   1.0000   1.0000   1.0000
     1.0000   1.0000   1.0000   1.0000   1.0000   1.0000   1.0000   1.0000
     1.0000   1.0000   1.0000   1.0000   1.0000   1.0000   1.0000   1.0000
     1.0000   1.0000   1.0000   1.0000   1.0000   1.0000   1.0000   1.0000
     1.0000   1.0000   1.0000   1.0000   1.0000   1.0000   1.0000   1.0000
     0.0000   0.0000   0.0000   0.0000

          k = 0.8131-0.7183-0.1364 (   345 PWs)   bands (ev):

    51.3698  51.3698  53.3577  53.3577  56.0264  56.0264  59.9716  59.9716
    60.8945  60.8945  62.9431  62.9431  66.2267  66.2267  70.2050  70.2050
    71.7842  71.7842  72.5225  72.5225  72.8146  72.8146  74.5316  74.5316
    82.2125  82.2125  82.9149  82.9149  86.6452  86.6452  86.8062  86.8062
    89.2855  89.2855  89.8032  89.8032  90.9191  90.9191  91.3642  91.3642
    92.0140  92.0140  92.4091  92.4091  93.5053  93.5053  94.6521  94.6521
   118.2316 118.2316 120.2112 120.2112

     occupation numbers 
     1.0000   1.0000   1.0000   1.0000   1.0000   1.0000   1.0000   1.0000
     1.0000   1.0000   1.0000   1.0000   1.0000   1.0000   1.0000   1.0000
     1.0000   1.0000   1.0000   1.0000   1.0000   1.0000   1.0000   1.0000
     1.0000   1.0000   1.0000   1.0000   1.0000   1.0000   1.0000   1.0000
     1.0000   1.0000   1.0000   1.0000   1.0000   1.0000   1.0000   1.0000
     1.0000   1.0000   1.0000   1.0000   1.0000   1.0000   1.0000   1.0000
     0.0000   0.0000   0.0000   0.0000

          k = 0.7053-0.7805-0.0969 (   346 PWs)   bands (ev):

    50.1295  50.1295  53.6878  53.6878  55.8730  55.8730  61.3251  61.3251
    62.0089  62.0089  64.3425  64.3425  65.5305  65.5305  70.1859  70.1859
    72.4818  72.4818  73.4283  73.4283  74.0715  74.0715  75.7030  75.7030
    79.6829  79.6829  81.6446  81.6446  85.9101  85.9101  86.3978  86.3978
    88.1600  88.1600  89.2835  89.2835  90.6294  90.6294  91.1585  91.1585
    92.1767  92.1767  92.6066  92.6066  94.3886  94.3886  95.1901  95.1901
   113.0804 113.0804 119.0301 119.0301

     occupation numbers 
     1.0000   1.0000   1.0000   1.0000   1.0000   1.0000   1.0000   1.0000
     1.0000   1.0000   1.0000   1.0000   1.0000   1.0000   1.0000   1.0000
     1.0000   1.0000   1.0000   1.0000   1.0000   1.0000   1.0000   1.0000
     1.0000   1.0000   1.0000   1.0000   1.0000   1.0000   1.0000   1.0000
     1.0000   1.0000   1.0000   1.0000   1.0000   1.0000   1.0000   1.0000
     1.0000   1.0000   1.0000   1.0000   1.0000   1.0000   1.0000   1.0000
     0.0000   0.0000   0.0000   0.0000

          k = 0.5976-0.8427-0.0574 (   342 PWs)   bands (ev):

    49.2511  49.2511  53.9863  53.9863  56.0816  56.0816  61.5085  61.5085
    62.7816  62.7816  64.1621  64.1621  67.7853  67.7853  68.8525  68.8525
    73.2688  73.2688  74.2405  74.2405  76.0967  76.0967  76.4065  76.4065
    77.5857  77.5857  80.9418  80.9418  84.6675  84.6675  85.9979  85.9979
    87.4632  87.4632  89.1474  89.1474  90.2372  90.2372  90.9101  90.9101
    92.2168  92.2168  92.9495  92.9495  95.0987  95.0987  95.6233  95.6233
   109.3607 109.3607 118.1486 118.1486

     occupation numbers 
     1.0000   1.0000   1.0000   1.0000   1.0000   1.0000   1.0000   1.0000
     1.0000   1.0000   1.0000   1.0000   1.0000   1.0000   1.0000   1.0000
     1.0000   1.0000   1.0000   1.0000   1.0000   1.0000   1.0000   1.0000
     1.0000   1.0000   1.0000   1.0000   1.0000   1.0000   1.0000   1.0000
     1.0000   1.0000   1.0000   1.0000   1.0000   1.0000   1.0000   1.0000
     1.0000   1.0000   1.0000   1.0000   1.0000   1.0000   1.0000   1.0000
     0.0000   0.0000   0.0000   0.0000

          k = 0.4898-0.8484-0.0000 (   336 PWs)   bands (ev):

    49.1029  49.1029  53.4547  53.4547  56.9116  56.9116  61.6021  61.6021
    62.6331  62.6331  64.8257  64.8257  67.6529  67.6529  68.9480  68.9480
    73.7215  73.7215  74.2306  74.2306  75.8403  75.8403  77.4500  77.4500
    77.6710  77.6710  80.3916  80.3916  84.4296  84.4296  84.8993  84.8993
    87.8165  87.8165  88.6788  88.6788  90.1412  90.1412  91.1502  91.1502
    91.8979  91.8979  93.6184  93.6184  95.1870  95.1870  95.8689  95.8689
   108.4077 108.4077 115.6840 115.6840

     occupation numbers 
     1.0000   1.0000   1.0000   1.0000   1.0000   1.0000   1.0000   1.0000
     1.0000   1.0000   1.0000   1.0000   1.0000   1.0000   1.0000   1.0000
     1.0000   1.0000   1.0000   1.0000   1.0000   1.0000   1.0000   1.0000
     1.0000   1.0000   1.0000   1.0000   1.0000   1.0000   1.0000   1.0000
     1.0000   1.0000   1.0000   1.0000   1.0000   1.0000   1.0000   1.0000
     1.0000   1.0000   1.0000   1.0000   1.0000   1.0000   1.0000   1.0000
     0.0000   0.0000   0.0000   0.0000

          k = 0.3821-0.9106 0.0395 (   340 PWs)   bands (ev):

    49.4540  49.4540  53.3163  53.3163  56.7323  56.7323  61.5079  61.5079
    62.9169  62.9169  63.8945  63.8945  67.5901  67.5901  68.9880  68.9880
    73.0628  73.0628  74.2748  74.2748  75.5911  75.5911  76.3250  76.3250
    78.6395  78.6395  80.6222  80.6222  84.9892  84.9892  85.4089  85.4089
    87.9176  87.9176  88.8818  88.8818  90.1424  90.1424  91.1455  91.1455
    92.3542  92.3542  93.1703  93.1703  95.0034  95.0034  95.6612  95.6612
   109.9377 109.9377 116.7299 116.7299

     occupation numbers 
     1.0000   1.0000   1.0000   1.0000   1.0000   1.0000   1.0000   1.0000
     1.0000   1.0000   1.0000   1.0000   1.0000   1.0000   1.0000   1.0000
     1.0000   1.0000   1.0000   1.0000   1.0000   1.0000   1.0000   1.0000
     1.0000   1.0000   1.0000   1.0000   1.0000   1.0000   1.0000   1.0000
     1.0000   1.0000   1.0000   1.0000   1.0000   1.0000   1.0000   1.0000
     1.0000   1.0000   1.0000   1.0000   1.0000   1.0000   1.0000   1.0000
     0.0000   0.0000   0.0000   0.0000

          k = 0.2743-0.9728 0.0790 (   343 PWs)   bands (ev):

    50.4091  50.4091  53.0431  53.0431  56.4575  56.4575  60.9838  60.9838
    61.7184  61.7184  64.4120  64.4120  65.7495  65.7495  69.8839  69.8839
    72.4115  72.4115  73.1268  73.1268  74.1355  74.1355  75.7328  75.7328
    80.4847  80.4847  81.5921  81.5921  85.9028  85.9028  86.2352  86.2352
    88.4508  88.4508  89.3508  89.3508  90.3869  90.3869  91.4071  91.4071
    92.4397  92.4397  92.6435  92.6435  94.2045  94.2045  95.3114  95.3114
   114.1563 114.1563 118.6801 118.6801

     occupation numbers 
     1.0000   1.0000   1.0000   1.0000   1.0000   1.0000   1.0000   1.0000
     1.0000   1.0000   1.0000   1.0000   1.0000   1.0000   1.0000   1.0000
     1.0000   1.0000   1.0000   1.0000   1.0000   1.0000   1.0000   1.0000
     1.0000   1.0000   1.0000   1.0000   1.0000   1.0000   1.0000   1.0000
     1.0000   1.0000   1.0000   1.0000   1.0000   1.0000   1.0000   1.0000
     1.0000   1.0000   1.0000   1.0000   1.0000   1.0000   1.0000   1.0000
     0.0000   0.0000   0.0000   0.0000

          k = 0.1665-1.0350 0.1184 (   345 PWs)   bands (ev):

    51.6483  51.6483  52.8690  52.8690  56.5279  56.5279  59.5363  59.5363
    60.4689  60.4689  63.1450  63.1450  66.5652  66.5652  69.7054  69.7054
    71.5061  71.5061  72.8323  72.8323  72.9728  72.9728  74.4803  74.4803
    82.3152  82.3152  83.3925  83.3925  86.4041  86.4041  86.9824  86.9824
    89.3869  89.3869  89.9330  89.9330  90.7474  90.7474  91.5335  91.5335
    92.0630  92.0630  92.4137  92.4137  93.2612  93.2612  94.9324  94.9324
   119.2888 119.2888 119.9907 119.9907

     occupation numbers 
     1.0000   1.0000   1.0000   1.0000   1.0000   1.0000   1.0000   1.0000
     1.0000   1.0000   1.0000   1.0000   1.0000   1.0000   1.0000   1.0000
     1.0000   1.0000   1.0000   1.0000   1.0000   1.0000   1.0000   1.0000
     1.0000   1.0000   1.0000   1.0000   1.0000   1.0000   1.0000   1.0000
     1.0000   1.0000   1.0000   1.0000   1.0000   1.0000   1.0000   1.0000
     1.0000   1.0000   1.0000   1.0000   1.0000   1.0000   1.0000   1.0000
     0.0000   0.0000   0.0000   0.0000

          k = 0.0588-1.0973 0.1579 (   344 PWs)   bands (ev):

    52.6467  52.6467  52.8907  52.8907  57.2438  57.2438  58.1890  58.1890
    59.3757  59.3757  61.2140  61.2140  68.4428  68.4428  69.5625  69.5625
    70.6121  70.6121  72.1983  72.1983  72.8382  72.8382  73.0560  73.0560
    83.8937  83.8937  84.7672  84.7672  86.4379  86.4379  87.0787  87.0787
    90.3575  90.3575  90.7000  90.7000  91.0746  91.0746  91.3503  91.3503
    91.7884  91.7884  92.1767  92.1767  93.0321  93.0321  94.4153  94.4153
   121.0969 121.0969 121.9457 121.9457

     occupation numbers 
     1.0000   1.0000   1.0000   1.0000   1.0000   1.0000   1.0000   1.0000
     1.0000   1.0000   1.0000   1.0000   1.0000   1.0000   1.0000   1.0000
     1.0000   1.0000   1.0000   1.0000   1.0000   1.0000   1.0000   1.0000
     1.0000   1.0000   1.0000   1.0000   1.0000   1.0000   1.0000   1.0000
     1.0000   1.0000   1.0000   1.0000   1.0000   1.0000   1.0000   1.0000
     1.0000   1.0000   1.0000   1.0000   1.0000   1.0000   1.0000   1.0000
     0.0000   0.0000   0.0000   0.0000

          k = 1.0286-0.5373-0.1974 (   342 PWs)   bands (ev):

    52.9793  52.9793  52.9793  52.9793  57.7812  57.7812  57.7812  57.7812
    59.5353  59.5353  59.5353  59.5353  69.5236  69.5236  69.5236  69.5236
    71.0064  71.0064  71.0064  71.0064  72.6244  72.6244  72.6244  72.6244
    84.9805  84.9805  84.9805  84.9805  86.5305  86.5305  86.5305  86.5305
    90.6354  90.6354  90.6354  90.6354  91.3944  91.3944  91.3944  91.3944
    92.1614  92.1614  92.1614  92.1614  93.5159  93.5159  93.5159  93.5159
   121.9335 121.9335 121.9335 121.9335

     occupation numbers 
     1.0000   1.0000   1.0000   1.0000   1.0000   1.0000   1.0000   1.0000
     1.0000   1.0000   1.0000   1.0000   1.0000   1.0000   1.0000   1.0000
     1.0000   1.0000   1.0000   1.0000   1.0000   1.0000   1.0000   1.0000
     1.0000   1.0000   1.0000   1.0000   1.0000   1.0000   1.0000   1.0000
     1.0000   1.0000   1.0000   1.0000   1.0000   1.0000   1.0000   1.0000
     1.0000   1.0000   1.0000   1.0000   1.0000   1.0000   1.0000   1.0000
     0.0000   0.0000   0.0000   0.0000

          k =-0.6466-0.3733-0.3553 (   344 PWs)   bands (ev):

    49.3084  49.3084  54.3521  54.3521  55.4830  55.4830  61.3061  61.3061
    62.8905  62.8905  63.8500  63.8500  67.6836  67.6836  69.2106  69.2106
    72.8374  72.8374  74.2768  74.2768  75.5411  75.5411  76.3086  76.3086
    78.3639  78.3639  81.2130  81.2130  84.8609  84.8609  86.4870  86.4870
    87.1504  87.1504  89.2378  89.2378  90.3971  90.3971  90.7317  90.7317
    92.3681  92.3681  92.8737  92.8737  95.0519  95.0519  95.6582  95.6582
   109.8935 109.8935 118.7987 118.7987

     occupation numbers 
     1.0000   1.0000   1.0000   1.0000   1.0000   1.0000   1.0000   1.0000
     1.0000   1.0000   1.0000   1.0000   1.0000   1.0000   1.0000   1.0000
     1.0000   1.0000   1.0000   1.0000   1.0000   1.0000   1.0000   1.0000
     1.0000   1.0000   1.0000   1.0000   1.0000   1.0000   1.0000   1.0000
     1.0000   1.0000   1.0000   1.0000   1.0000   1.0000   1.0000   1.0000
     1.0000   1.0000   1.0000   1.0000   1.0000   1.0000   1.0000   1.0000
     0.0000   0.0000   0.0000   0.0000

          k =-0.7543-0.4355-0.3158 (   345 PWs)   bands (ev):

    50.2615  50.2615  54.0278  54.0278  55.2208  55.2208  60.9570  60.9570
    61.8053  61.8053  64.4584  64.4584  65.3311  65.3311  70.6813  70.6813
    71.8042  71.8042  73.5096  73.5096  73.6543  73.6543  75.6676  75.6676
    80.4767  80.4767  81.9941  81.9941  86.2555  86.2555  86.6445  86.6445
    88.0494  88.0494  89.2362  89.2362  90.8019  90.8019  91.2035  91.2035
    92.1323  92.1323  92.7491  92.7491  94.2321  94.2321  95.2913  95.2913
   114.1316 114.1316 119.4706 119.4706

     occupation numbers 
     1.0000   1.0000   1.0000   1.0000   1.0000   1.0000   1.0000   1.0000
     1.0000   1.0000   1.0000   1.0000   1.0000   1.0000   1.0000   1.0000
     1.0000   1.0000   1.0000   1.0000   1.0000   1.0000   1.0000   1.0000
     1.0000   1.0000   1.0000   1.0000   1.0000   1.0000   1.0000   1.0000
     1.0000   1.0000   1.0000   1.0000   1.0000   1.0000   1.0000   1.0000
     1.0000   1.0000   1.0000   1.0000   1.0000   1.0000   1.0000   1.0000
     0.0000   0.0000   0.0000   0.0000

          k =-0.8621-0.4977-0.2763 (   343 PWs)   bands (ev):

    51.4974  51.4974  53.6375  53.6375  55.4854  55.4854  60.0593  60.0593
    60.1894  60.1894  62.8697  62.8697  66.2678  66.2678  70.8784  70.8784
    71.0128  71.0128  72.4468  72.4468  72.7721  72.7721  74.4562  74.4562
    82.6456  82.6456  83.5181  83.5181  86.6394  86.6394  87.1343  87.1343
    89.3109  89.3109  89.6805  89.6805  90.9882  90.9882  91.5559  91.5559
    91.9458  91.9458  92.6656  92.6656  93.2481  93.2481  94.8171  94.8171
   119.3688 119.3688 120.5134 120.5134

     occupation numbers 
     1.0000   1.0000   1.0000   1.0000   1.0000   1.0000   1.0000   1.0000
     1.0000   1.0000   1.0000   1.0000   1.0000   1.0000   1.0000   1.0000
     1.0000   1.0000   1.0000   1.0000   1.0000   1.0000   1.0000   1.0000
     1.0000   1.0000   1.0000   1.0000   1.0000   1.0000   1.0000   1.0000
     1.0000   1.0000   1.0000   1.0000   1.0000   1.0000   1.0000   1.0000
     1.0000   1.0000   1.0000   1.0000   1.0000   1.0000   1.0000   1.0000
     0.0000   0.0000   0.0000   0.0000

          k =-0.9698-0.5599-0.2369 (   345 PWs)   bands (ev):

    52.5327  52.5327  53.3305  53.3305  56.6175  56.6175  58.7512  58.7512
    59.1719  59.1719  60.5799  60.5799  68.3627  68.3627  70.3915  70.3915
    70.5796  70.5796  71.5890  71.5890  72.6142  72.6142  73.0206  73.0206
    84.3366  84.3366  85.0672  85.0672  86.3912  86.3912  86.9640  86.9640
    90.1680  90.1680  91.0363  91.0363  91.1778  91.1778  91.2867  91.2867
    91.6269  91.6269  92.6941  92.6941  93.0678  93.0678  94.1588  94.1588
   121.4568 121.4568 122.0888 122.0888

     occupation numbers 
     1.0000   1.0000   1.0000   1.0000   1.0000   1.0000   1.0000   1.0000
     1.0000   1.0000   1.0000   1.0000   1.0000   1.0000   1.0000   1.0000
     1.0000   1.0000   1.0000   1.0000   1.0000   1.0000   1.0000   1.0000
     1.0000   1.0000   1.0000   1.0000   1.0000   1.0000   1.0000   1.0000
     1.0000   1.0000   1.0000   1.0000   1.0000   1.0000   1.0000   1.0000
     1.0000   1.0000   1.0000   1.0000   1.0000   1.0000   1.0000   1.0000
     0.0000   0.0000   0.0000   0.0000

          k = 0.0000 0.0000-0.5922 (   344 PWs)   bands (ev):

    53.0806  53.0806  53.0806  53.0806  58.4547  58.4547  58.4547  58.4547
    58.4547  58.4547  58.4547  58.4547  70.3397  70.3397  70.3397  70.3397
    70.3397  70.3397  70.3397  70.3397  72.4034  72.4034  72.4034  72.4034
    85.8888  85.8888  85.8888  85.8888  85.8888  85.8888  85.8888  85.8888
    90.5927  90.5927  90.5927  90.5927  91.4155  91.4155  91.4155  91.4155
    92.9555  92.9555  92.9555  92.9555  92.9555  92.9555  92.9555  92.9555
   122.1694 122.1694 122.1694 122.1694

     occupation numbers 
     1.0000   1.0000   1.0000   1.0000   1.0000   1.0000   1.0000   1.0000
     1.0000   1.0000   1.0000   1.0000   1.0000   1.0000   1.0000   1.0000
     1.0000   1.0000   1.0000   1.0000   1.0000   1.0000   1.0000   1.0000
     1.0000   1.0000   1.0000   1.0000   1.0000   1.0000   1.0000   1.0000
     1.0000   1.0000   1.0000   1.0000   1.0000   1.0000   1.0000   1.0000
     1.0000   1.0000   1.0000   1.0000   1.0000   1.0000   1.0000   1.0000
     0.0000   0.0000   0.0000   0.0000

     the Fermi energy is    99.4961 ev

     Writing output data file pwscf.save\

     init_run     :      0.69s CPU      1.09s WALL (       1 calls)
     electrons    :    675.81s CPU    412.66s WALL (       1 calls)

     Called by init_run:
     wfcinit      :      0.11s CPU      0.11s WALL (       1 calls)
     wfcinit:atom :      0.61s CPU      1.14s WALL (    1266 calls)
     wfcinit:wfcr :    107.62s CPU     48.64s WALL (    1266 calls)
     potinit      :      0.02s CPU      0.02s WALL (       1 calls)
     hinit0       :      0.50s CPU      0.89s WALL (       1 calls)

     Called by electrons:
     c_bands      :    674.81s CPU    412.01s WALL (       1 calls)
     v_of_rho     :      0.00s CPU      0.00s WALL (       1 calls)
     v_h          :      0.00s CPU      0.00s WALL (       1 calls)
     v_xc         :      0.00s CPU      0.00s WALL (       1 calls)
     newd         :      0.03s CPU      0.05s WALL (       1 calls)

     Called by c_bands:
     init_us_2    :      0.48s CPU      0.60s WALL (    1266 calls)
     cegterg      :    550.81s CPU    345.43s WALL (    1298 calls)

     Called by sum_band:

     Called by *egterg:
     h_psi        :    469.14s CPU    237.80s WALL (   19984 calls)
     s_psi        :     17.16s CPU     14.58s WALL (   19984 calls)
     g_psi        :      2.02s CPU      2.41s WALL (   17420 calls)
     cdiaghg      :     92.25s CPU     81.80s WALL (   18686 calls)
     cegterg:over :     19.70s CPU     20.33s WALL (   17420 calls)
     cegterg:upda :     16.00s CPU     13.40s WALL (   17420 calls)
     cegterg:last :     25.41s CPU      9.82s WALL (    3830 calls)

     Called by h_psi:
     h_psi:pot    :    466.97s CPU    234.39s WALL (   19984 calls)
     h_psi:calbec :     38.70s CPU     10.04s WALL (   19984 calls)
     vloc_psi     :    395.70s CPU    210.38s WALL (   19984 calls)
     add_vuspsi   :     32.33s CPU     13.81s WALL (   19984 calls)

     General routines
     calbec       :     38.61s CPU      9.95s WALL (   19984 calls)
     fft          :      0.00s CPU      0.00s WALL (      12 calls)
     ffts         :      0.00s CPU      0.00s WALL (       4 calls)
     fftw         :    240.70s CPU    125.09s WALL ( 2456524 calls)
     interpolate  :      0.00s CPU      0.00s WALL (       4 calls)
     davcio       :      2.11s CPU      2.61s WALL (    2532 calls)

     Parallel routines

     PWSCF        :  11m17.33s CPU   7m24.55s WALL


   This run was terminated on:   4: 4:27  15Jan2023            

=------------------------------------------------------------------------------=
   JOB DONE.
=------------------------------------------------------------------------------=
