
     Program PWSCF v.6.4.1 starts on 14Jan2023 at 19: 3: 5 

     This program is part of the open-source Quantum ESPRESSO suite
     for quantum simulation of materials; please cite
         "P. Giannozzi et al., J. Phys.:Condens. Matter 21 395502 (2009);
         "P. Giannozzi et al., J. Phys.:Condens. Matter 29 465901 (2017);
          URL http://www.quantum-espresso.org", 
     in publications or presentations arising from this work. More details at
     http://www.quantum-espresso.org/quote

     Parallel version (MPI & OpenMP), running on       8 processor cores
     Number of MPI processes:                 1
     Threads/MPI process:                     8

     MPI processes distributed on     1 nodes
     Waiting for input...
     Reading input from standard input

     Current dimensions of program PWSCF are:
     Max number of different atomic species (ntypx) = 10
     Max number of k-points (npk) =  40000
     Max angular momentum in pseudopotentials (lmaxx) =  3
     Message from routine setup:
     At least one non s.o. pseudo

     Subspace diagonalization in iterative solution of the eigenvalue problem:
     a serial algorithm will be used


     G-vector sticks info
     --------------------
     sticks:   dense  smooth     PW     G-vecs:    dense   smooth      PW
     Sum        3425    1533    437               151107    44713    7075



     bravais-lattice index     =            5
     lattice parameter (alat)  =       9.7850  a.u.
     unit-cell volume          =     936.8774 (a.u.)^3
     number of atoms/cell      =           10
     number of atomic types    =            2
     number of electrons       =        48.00
     number of Kohn-Sham states=           58
     kinetic-energy cutoff     =      50.0000  Ry
     charge density cutoff     =     450.0000  Ry
     convergence threshold     =      1.0E-06
     mixing beta               =       0.7000
     number of iterations used =            8  plain     mixing
     Exchange-correlation      = SLA  PZ   NOGX NOGC ( 1  1  0  0 0 0)
     nstep                     =           50

     Non magnetic calculation with spin-orbit


     celldm(1)=   9.785002  celldm(2)=   0.000000  celldm(3)=   0.000000
     celldm(4)=   0.000000  celldm(5)=   0.000000  celldm(6)=   0.000000

     crystal axes: (cart. coord. in units of alat)
               a(1) = (   0.707107  -0.408248   0.577350 )  
               a(2) = (   0.000000   0.816497   0.577350 )  
               a(3) = (  -0.707107  -0.408248   0.577350 )  

     reciprocal axes: (cart. coord. in units 2 pi/alat)
               b(1) = (  0.707107 -0.408248  0.577350 )  
               b(2) = (  0.000000  0.816497  0.577350 )  
               b(3) = ( -0.707107 -0.408248  0.577350 )  


     PseudoPot. # 1 for Al read from file:
     .\al_lda_v1.uspp.F.UPF
     MD5 check sum: 51a9e5980debfdd3404790b200e14add
     Pseudo is Ultrasoft + core correction, Zval =  3.0
     Generated by new atomic code, or converted to UPF format
     Using radial grid of  893 points,  3 beta functions with: 
                l(1) =   0
                l(2) =   1
                l(3) =   2
     Q(r) pseudized with  8 coefficients,  rinner =    0.900   0.900   0.900
                                                       0.900   0.900

     PseudoPot. # 2 for O  read from file:
     .\o_lda_v1.2.uspp.F.UPF
     MD5 check sum: 194b818514d2a7dbb603bb78519a4f40
     Pseudo is Ultrasoft + core correction, Zval =  6.0
     Generated by new atomic code, or converted to UPF format
     Using radial grid of  737 points,  5 beta functions with: 
                l(1) =   0
                l(2) =   0
                l(3) =   1
                l(4) =   1
                l(5) =   2
     Q(r) pseudized with  8 coefficients,  rinner =    0.900   0.900   0.900
                                                       0.900   0.900

     atomic species   valence    mass     pseudopotential
        Al             3.00    26.98154     Al( 1.00)
        O              6.00    15.99900     O ( 1.00)

     12 Sym. Ops., with inversion, found ( 6 have fractional translation)



   Cartesian axes

     site n.     atom                  positions (alat units)
         1           Al  tau(   1) = (   0.0000000  -0.0000000   0.2561703  )
         2           Al  tau(   2) = (   0.0000000  -0.0000000   0.6098551  )
         3           Al  tau(   3) = (   0.0000000  -0.0000000   1.1221957  )
         4           Al  tau(   4) = (   0.0000000  -0.0000000   1.4758805  )
         5           O   tau(   5) = (  -0.2742160   0.4082483   0.7216878  )
         6           O   tau(   6) = (  -0.4906614  -0.0333539   1.0103630  )
         7           O   tau(   7) = (  -0.2164454  -0.4416022   0.7216878  )
         8           O   tau(   8) = (   0.2164454   0.4416022   1.0103630  )
         9           O   tau(   9) = (   0.4906614   0.0333539   0.7216878  )
        10           O   tau(  10) = (   0.2742160  -0.4082483   1.0103630  )

     number of k points=    22  gaussian smearing, width (Ry)=  0.0100
                       cart. coord. in units 2pi/alat
        k(    1) = (   0.0000000   0.0000000   0.0000000), wk =   0.0138889
        k(    2) = (   0.3535534   0.2041241  -0.2886751), wk =   0.0416667
        k(    3) = (   0.0000000   0.1360828   0.0962250), wk =   0.0555556
        k(    4) = (   0.3535534   0.3402069  -0.1924501), wk =   0.1111111
        k(    5) = (   0.0000000   0.2721655   0.1924501), wk =   0.0555556
        k(    6) = (   0.3535534   0.4762897  -0.0962250), wk =   0.1111111
        k(    7) = (   0.3535534  -0.2041241  -0.5773503), wk =   0.0416667
        k(    8) = (   0.1178511   0.0680414   0.1924501), wk =   0.0277778
        k(    9) = (   0.4714045   0.2721655  -0.0962250), wk =   0.0277778
        k(   10) = (   0.1178511   0.2041241   0.2886751), wk =   0.0555556
        k(   11) = (   0.4714045   0.4082483   0.0000000), wk =   0.0555556
        k(   12) = (   0.4714045  -0.2721655  -0.4811252), wk =   0.0555556
        k(   13) = (   0.1178511  -0.3402069  -0.0962250), wk =   0.0555556
        k(   14) = (   0.4714045  -0.1360828  -0.3849002), wk =   0.0555556
        k(   15) = (   0.1178511  -0.2041241  -0.0000000), wk =   0.0277778
        k(   16) = (   0.4714045   0.0000000  -0.2886751), wk =   0.0277778
        k(   17) = (   0.2357023   0.1360828   0.3849002), wk =   0.0277778
        k(   18) = (   0.5892557   0.3402069   0.0962250), wk =   0.0277778
        k(   19) = (   0.5892557  -0.3402069  -0.3849002), wk =   0.0555556
        k(   20) = (   0.2357023  -0.4082483  -0.0000000), wk =   0.0277778
        k(   21) = (   0.5892557  -0.2041241  -0.2886751), wk =   0.0277778
        k(   22) = (   0.0000000   0.0000000  -0.8660254), wk =   0.0138889

     Dense  grid:   151107 G-vectors     FFT dimensions: (  72,  72,  72)

     Smooth grid:    44713 G-vectors     FFT dimensions: (  48,  48,  48)

     Estimated max dynamical RAM per process >     828.49 MB

     Initial potential from superposition of free atoms

     starting charge   47.99122, renormalised to   48.00000
     Starting wfcs are   80 randomized atomic wfcs

     total cpu time spent up to now is       25.0 secs

     Self-consistent Calculation

     iteration #  1     ecut=    50.00 Ry     beta= 0.70
     Davidson diagonalization with overlap
     ethr =  1.00E-02,  avg # of iterations =  2.0

     total cpu time spent up to now is       45.7 secs

     total energy              =    -217.33337857 Ry
     Harris-Foulkes estimate   =    -219.24885448 Ry
     estimated scf accuracy    <       2.47258210 Ry

     iteration #  2     ecut=    50.00 Ry     beta= 0.70
     Davidson diagonalization with overlap
     ethr =  5.15E-03,  avg # of iterations =  4.0

     total cpu time spent up to now is       76.4 secs

     total energy              =    -216.66704746 Ry
     Harris-Foulkes estimate   =    -221.50803810 Ry
     estimated scf accuracy    <      15.68884350 Ry

     iteration #  3     ecut=    50.00 Ry     beta= 0.70
     Davidson diagonalization with overlap
     ethr =  5.15E-03,  avg # of iterations =  3.0

     total cpu time spent up to now is      104.6 secs

     total energy              =    -218.77671939 Ry
     Harris-Foulkes estimate   =    -218.78818128 Ry
     estimated scf accuracy    <       0.02806749 Ry

     iteration #  4     ecut=    50.00 Ry     beta= 0.70
     Davidson diagonalization with overlap
     ethr =  5.85E-05,  avg # of iterations =  2.3

     total cpu time spent up to now is      125.4 secs

     total energy              =    -218.78176015 Ry
     Harris-Foulkes estimate   =    -218.78255066 Ry
     estimated scf accuracy    <       0.00256258 Ry

     iteration #  5     ecut=    50.00 Ry     beta= 0.70
     Davidson diagonalization with overlap
     ethr =  5.34E-06,  avg # of iterations =  3.2

     total cpu time spent up to now is      146.7 secs

     total energy              =    -218.78214291 Ry
     Harris-Foulkes estimate   =    -218.78231732 Ry
     estimated scf accuracy    <       0.00047631 Ry

     iteration #  6     ecut=    50.00 Ry     beta= 0.70
     Davidson diagonalization with overlap
     ethr =  9.92E-07,  avg # of iterations =  1.4

     total cpu time spent up to now is      165.5 secs

     total energy              =    -218.78220197 Ry
     Harris-Foulkes estimate   =    -218.78220731 Ry
     estimated scf accuracy    <       0.00001667 Ry

     iteration #  7     ecut=    50.00 Ry     beta= 0.70
     Davidson diagonalization with overlap
     ethr =  3.47E-08,  avg # of iterations =  3.0

     total cpu time spent up to now is      191.3 secs

     End of self-consistent calculation

          k = 0.0000 0.0000 0.0000 (  5575 PWs)   bands (ev):

   -13.5476 -13.5476 -12.6234 -12.6234 -12.6234 -12.6234 -12.2915 -12.2915
   -12.2915 -12.2915 -12.0059 -12.0059  -3.3239  -3.3239  -1.7991  -1.7991
    -1.1826  -1.1826  -0.1909  -0.1909  -0.1909  -0.1909  -0.1444  -0.1444
    -0.1444  -0.1444   0.5251   0.5251   0.5251   0.5251   0.9982   0.9982
     1.3360   1.3360   1.3360   1.3360   2.0219   2.0219   2.4099   2.4099
     2.4112   2.4112   2.4112   2.4112   2.9907   2.9907   2.9907   2.9907
     3.4776   3.4776   3.5611   3.5611   3.9595   3.9595   5.1115   5.1115
     7.6243   7.6243

          k = 0.3536 0.2041-0.2887 (  5622 PWs)   bands (ev):

   -13.1281 -13.1281 -13.1281 -13.1281 -12.4145 -12.4145 -12.4145 -12.4145
   -12.1730 -12.1730 -12.1730 -12.1730  -2.9540  -2.9540  -2.9540  -2.9540
    -0.8208  -0.8208  -0.8208  -0.8208   0.0919   0.0919   0.0919   0.0919
     0.5327   0.5327   0.5327   0.5327   0.9889   0.9889   0.9889   0.9889
     1.5534   1.5534   1.5534   1.5534   2.1199   2.1199   2.1199   2.1199
     2.4559   2.4559   2.4559   2.4559   3.0132   3.0132   3.0132   3.0132
     3.3315   3.3315   3.3315   3.3315   4.2122   4.2122   4.2122   4.2122
     7.6299   7.6300

          k = 0.0000 0.1361 0.0962 (  5582 PWs)   bands (ev):

   -13.4944 -13.4944 -12.7017 -12.7017 -12.5941 -12.5941 -12.2955 -12.2955
   -12.2764 -12.2764 -12.0332 -12.0332  -3.3168  -3.3168  -2.0428  -2.0428
    -1.1114  -1.1114  -0.2121  -0.2121  -0.2101  -0.2101  -0.0376  -0.0376
     0.1598   0.1598   0.4082   0.4082   0.4718   0.4718   0.7365   0.7365
     1.4600   1.4600   1.7488   1.7488   2.1829   2.1829   2.3208   2.3208
     2.3716   2.3716   2.4164   2.4164   2.8739   2.8739   2.9271   2.9271
     3.4914   3.4914   3.5101   3.5101   4.0188   4.0188   4.9112   4.9112
     7.6412   7.6412

          k = 0.3536 0.3402-0.1925 (  5574 PWs)   bands (ev):

   -13.0975 -13.0975 -13.0815 -13.0815 -12.4668 -12.4668 -12.4116 -12.4116
   -12.2313 -12.2313 -12.1542 -12.1542  -3.2950  -3.2950  -2.6427  -2.6427
    -0.9896  -0.9896  -0.5361  -0.5361  -0.2002  -0.2002   0.1319   0.1319
     0.4654   0.4654   0.6303   0.6303   0.8316   0.8316   1.2568   1.2568
     1.6554   1.6554   1.6827   1.6827   2.0151   2.0151   2.2513   2.2513
     2.4436   2.4436   2.5594   2.5594   2.9031   2.9031   3.0911   3.0911
     3.2252   3.2252   3.4382   3.4382   4.0253   4.0253   4.2651   4.2651
     7.3363   7.3363

          k = 0.0000 0.2722 0.1925 (  5578 PWs)   bands (ev):

   -13.3445 -13.3445 -12.8933 -12.8933 -12.5154 -12.5154 -12.3320 -12.3320
   -12.2346 -12.2346 -12.0995 -12.0995  -3.2219  -3.2219  -2.5221  -2.5221
    -1.0189  -1.0189  -0.4832  -0.4832   0.0731   0.0731   0.1087   0.1087
     0.3488   0.3488   0.4127   0.4127   0.6641   0.6641   0.7841   0.7841
     1.4759   1.4759   2.0225   2.0225   2.2188   2.2188   2.2272   2.2272
     2.3410   2.3410   2.4548   2.4548   2.7927   2.7927   2.9613   2.9613
     3.3052   3.3052   3.5124   3.5124   4.1001   4.1001   4.4985   4.4985
     7.5509   7.5509

          k = 0.3536 0.4763-0.0962 (  5578 PWs)   bands (ev):

   -13.0187 -13.0187 -12.9615 -12.9615 -12.5814 -12.5814 -12.4664 -12.4664
   -12.2748 -12.2748 -12.1633 -12.1633  -3.5399  -3.5399  -2.4569  -2.4569
    -1.0670  -1.0670  -0.5745  -0.5745  -0.3194  -0.3194   0.1571   0.1571
     0.5045   0.5045   0.5593   0.5593   1.1554   1.1554   1.4200   1.4200
     1.6918   1.6918   1.9121   1.9121   2.0398   2.0398   2.2531   2.2531
     2.4354   2.4354   2.7162   2.7162   2.8808   2.8808   3.0354   3.0354
     3.2284   3.2284   3.4486   3.4486   3.7118   3.7118   4.3075   4.3075
     7.1744   7.1744

          k = 0.3536-0.2041-0.5774 (  5552 PWs)   bands (ev):

   -12.9665 -12.9665 -12.8509 -12.8509 -12.6869 -12.6869 -12.5248 -12.5248
   -12.2754 -12.2754 -12.1733 -12.1733  -3.6264  -3.6264  -2.3970  -2.3970
    -1.0743  -1.0743  -0.7418  -0.7418  -0.3190  -0.3190   0.0825   0.0825
     0.6931   0.6931   0.6999   0.6999   1.3000   1.3000   1.4032   1.4032
     1.8014   1.8014   1.8670   1.8670   2.1172   2.1172   2.1473   2.1473
     2.4245   2.4245   2.8052   2.8052   2.8998   2.8998   2.9974   2.9974
     3.2545   3.2545   3.4580   3.4580   3.5138   3.5138   4.3262   4.3262
     7.1443   7.1443

          k = 0.1179 0.0680 0.1925 (  5587 PWs)   bands (ev):

   -13.4415 -13.4415 -12.7277 -12.7277 -12.6031 -12.6031 -12.3023 -12.3023
   -12.2897 -12.2897 -12.0409 -12.0409  -3.4763  -3.4763  -1.9972  -1.9972
    -0.8227  -0.8227  -0.2910  -0.2910  -0.1935  -0.1935  -0.0508  -0.0508
     0.1720   0.1720   0.4493   0.4493   0.4657   0.4657   0.5955   0.5955
     1.5203   1.5203   1.6840   1.6840   2.1854   2.1854   2.3641   2.3641
     2.3650   2.3650   2.6187   2.6187   2.8104   2.8104   3.0127   3.0127
     3.3819   3.3819   3.4273   3.4273   4.1038   4.1038   4.7136   4.7136
     7.7529   7.7529

          k = 0.4714 0.2722-0.0962 (  5608 PWs)   bands (ev):

   -13.0601 -13.0601 -13.0368 -13.0368 -12.4995 -12.4995 -12.4415 -12.4415
   -12.2685 -12.2685 -12.1454 -12.1454  -3.5615  -3.5615  -2.4521  -2.4521
    -1.0140  -1.0140  -0.2567  -0.2567  -0.0108  -0.0108   0.1819   0.1819
     0.2668   0.2668   0.6422   0.6422   0.6807   0.6807   1.2600   1.2600
     1.5546   1.5546   1.7719   1.7719   1.8272   1.8272   2.2191   2.2191
     2.6530   2.6530   2.6920   2.6920   2.8009   2.8009   3.1113   3.1113
     3.1399   3.1399   3.4363   3.4363   4.0321   4.0321   4.4427   4.4427
     7.3184   7.3184

          k = 0.1179 0.2041 0.2887 (  5585 PWs)   bands (ev):

   -13.2945 -13.2945 -12.8801 -12.8801 -12.5325 -12.5325 -12.3616 -12.3616
   -12.2699 -12.2699 -12.0904 -12.0904  -3.4903  -3.4903  -2.2824  -2.2824
    -0.7018  -0.7018  -0.5930  -0.5930  -0.1797  -0.1797   0.2110   0.2110
     0.2279   0.2279   0.5371   0.5371   0.6129   0.6129   0.7678   0.7678
     1.6283   1.6283   1.9358   1.9358   2.0776   2.0776   2.3408   2.3408
     2.4633   2.4633   2.5016   2.5016   2.9089   2.9089   2.9836   2.9836
     3.1781   3.1781   3.4722   3.4722   4.1590   4.1590   4.3301   4.3301
     7.6007   7.6007

          k = 0.4714 0.4082 0.0000 (  5594 PWs)   bands (ev):

   -12.9745 -12.9745 -12.9178 -12.9178 -12.5871 -12.5871 -12.4999 -12.4999
   -12.3131 -12.3131 -12.1815 -12.1815  -3.7068  -3.7068  -2.5316  -2.5316
    -0.8767  -0.8767  -0.3207  -0.3207  -0.1161  -0.1161   0.2282   0.2282
     0.3324   0.3324   0.6711   0.6711   0.9673   0.9673   1.5059   1.5059
     1.5606   1.5606   1.7255   1.7255   1.9948   1.9948   2.1088   2.1088
     2.5303   2.5303   2.7942   2.7942   2.8731   2.8731   3.0319   3.0319
     3.1788   3.1788   3.4003   3.4003   3.8295   3.8295   4.4766   4.4766
     7.3748   7.3748

          k = 0.4714-0.2722-0.4811 (  5628 PWs)   bands (ev):

   -12.9215 -12.9215 -12.8148 -12.8148 -12.6698 -12.6698 -12.5347 -12.5347
   -12.3212 -12.3212 -12.2250 -12.2250  -3.6593  -3.6593  -2.6994  -2.6994
    -0.7747  -0.7747  -0.5510  -0.5510  -0.2440  -0.2440   0.1044   0.1044
     0.5479   0.5479   0.8422   0.8422   1.3414   1.3414   1.3462   1.3462
     1.7967   1.7967   1.8765   1.8765   2.0063   2.0063   2.1831   2.1831
     2.3392   2.3392   2.7648   2.7648   2.8874   2.8874   2.9460   2.9460
     3.3157   3.3157   3.4485   3.4485   3.6099   3.6099   4.2622   4.2622
     7.3317   7.3317

          k = 0.1179-0.3402-0.0962 (  5585 PWs)   bands (ev):

   -13.3004 -13.3004 -12.8576 -12.8576 -12.5746 -12.5746 -12.3161 -12.3161
   -12.2263 -12.2263 -12.1580 -12.1580  -2.9273  -2.9273  -2.9100  -2.9100
    -1.2032  -1.2032  -0.3005  -0.3005  -0.1512  -0.1512   0.0960   0.0960
     0.3386   0.3386   0.5734   0.5734   0.6204   0.6204   1.1844   1.1844
     1.5380   1.5380   1.9547   1.9547   2.0989   2.0989   2.2773   2.2773
     2.4462   2.4462   2.5388   2.5388   2.7804   2.7804   3.1548   3.1548
     3.3085   3.3085   3.4820   3.4820   3.8700   3.8700   4.5157   4.5157
     7.2249   7.2249

          k = 0.4714-0.1361-0.3849 (  5594 PWs)   bands (ev):

   -12.9767 -12.9767 -12.9361 -12.9361 -12.5504 -12.5504 -12.4623 -12.4623
   -12.3143 -12.3143 -12.2383 -12.2383  -3.4182  -3.4182  -2.8581  -2.8581
    -0.7963  -0.7963  -0.5517  -0.5517  -0.3452  -0.3452  -0.0520  -0.0520
     0.6092   0.6092   0.7804   0.7804   1.2430   1.2430   1.4380   1.4380
     1.7547   1.7547   1.9473   1.9473   2.1744   2.1744   2.2453   2.2453
     2.3639   2.3639   2.5776   2.5776   2.8855   2.8855   2.9930   2.9930
     3.4145   3.4145   3.4734   3.4734   3.6388   3.6388   4.0052   4.0052
     7.2705   7.2706

          k = 0.1179-0.2041-0.0000 (  5587 PWs)   bands (ev):

   -13.4436 -13.4436 -12.6971 -12.6971 -12.6377 -12.6377 -12.2894 -12.2894
   -12.2606 -12.2606 -12.0808 -12.0808  -3.1281  -3.1281  -2.4300  -2.4300
    -1.2421  -1.2421  -0.2622  -0.2622  -0.0789  -0.0789   0.0644   0.0644
     0.2100   0.2100   0.3952   0.3952   0.4142   0.4142   0.9570   0.9570
     1.6392   1.6392   1.9609   1.9609   2.0485   2.0485   2.3274   2.3274
     2.3718   2.3718   2.4931   2.4931   2.7887   2.7887   2.9506   2.9506
     3.4502   3.4502   3.5763   3.5763   3.8993   3.8993   4.8070   4.8070
     7.2765   7.2765

          k = 0.4714 0.0000-0.2887 (  5608 PWs)   bands (ev):

   -13.0536 -13.0536 -13.0536 -13.0536 -12.4447 -12.4447 -12.4447 -12.4447
   -12.2297 -12.2297 -12.2297 -12.2297  -3.0382  -3.0382  -3.0382  -3.0382
    -0.7264  -0.7264  -0.7264  -0.7264  -0.2445  -0.2445  -0.2445  -0.2445
     0.6940   0.6940   0.6940   0.6940   1.2153   1.2153   1.2153   1.2153
     1.7467   1.7467   1.7467   1.7467   2.2603   2.2603   2.2603   2.2603
     2.3774   2.3774   2.3774   2.3774   3.0061   3.0061   3.0061   3.0061
     3.3976   3.3976   3.3976   3.3976   3.9495   3.9495   3.9495   3.9495
     7.4327   7.4327

          k = 0.2357 0.1361 0.3849 (  5584 PWs)   bands (ev):

   -13.1597 -13.1597 -12.8858 -12.8858 -12.5549 -12.5549 -12.4469 -12.4469
   -12.2837 -12.2837 -12.1215 -12.1215  -3.6135  -3.6135  -2.2858  -2.2858
    -0.7726  -0.7726  -0.5165  -0.5165  -0.4827  -0.4827   0.2176   0.2176
     0.2634   0.2634   0.6857   0.6857   0.8552   0.8552   1.1300   1.1300
     1.5455   1.5455   2.0431   2.0431   2.0709   2.0709   2.4340   2.4340
     2.4417   2.4417   2.5826   2.5826   2.9081   2.9081   3.0506   3.0506
     3.0957   3.0957   3.4497   3.4497   3.9902   3.9902   4.1955   4.1955
     7.3793   7.3793

          k = 0.5893 0.3402 0.0962 (  5614 PWs)   bands (ev):

   -12.8667 -12.8667 -12.8076 -12.8076 -12.5951 -12.5951 -12.5541 -12.5541
   -12.4063 -12.4063 -12.2638 -12.2638  -3.7848  -3.7848  -2.8828  -2.8828
    -0.4938  -0.4938  -0.0808  -0.0808   0.1236   0.1236   0.2041   0.2041
     0.3269   0.3269   0.5662   0.5662   1.0931   1.0931   1.4608   1.4608
     1.5829   1.5829   1.7360   1.7360   1.8296   1.8296   2.1897   2.1897
     2.5703   2.5703   2.7562   2.7562   2.7994   2.7994   2.9690   2.9690
     3.2776   3.2776   3.3623   3.3623   3.7858   3.7858   4.4074   4.4074
     7.7278   7.7278

          k = 0.5893-0.3402-0.3849 (  5604 PWs)   bands (ev):

   -12.7965 -12.7965 -12.7197 -12.7197 -12.6187 -12.6187 -12.5657 -12.5657
   -12.4473 -12.4473 -12.3575 -12.3575  -3.6683  -3.6683  -3.1781  -3.1781
    -0.2888  -0.2888  -0.1606  -0.1606  -0.0183  -0.0183   0.1666   0.1666
     0.4327   0.4327   0.6400   0.6400   1.4167   1.4167   1.4172   1.4172
     1.6454   1.6454   1.7323   1.7323   1.9706   1.9706   2.2738   2.2738
     2.4084   2.4084   2.7038   2.7038   2.7845   2.7845   2.8668   2.8668
     3.4363   3.4363   3.4760   3.4760   3.6502   3.6502   4.0944   4.0944
     7.7934   7.7936

          k = 0.2357-0.4082-0.0000 (  5584 PWs)   bands (ev):

   -13.1761 -13.1761 -12.8162 -12.8162 -12.6697 -12.6697 -12.3307 -12.3307
   -12.2811 -12.2811 -12.1826 -12.1826  -3.2851  -3.2851  -2.6801  -2.6801
    -1.2243  -1.2243  -0.4728  -0.4728  -0.0147  -0.0147   0.1188   0.1188
     0.2913   0.2913   0.5382   0.5382   0.8210   0.8210   1.5361   1.5361
     1.7595   1.7595   1.8103   1.8103   2.0976   2.0976   2.3349   2.3349
     2.3505   2.3505   2.6802   2.6802   2.8554   2.8554   3.1530   3.1530
     3.3142   3.3142   3.5356   3.5356   3.5557   3.5557   4.4605   4.4605
     7.1001   7.1001

          k = 0.5893-0.2041-0.2887 (  5614 PWs)   bands (ev):

   -12.8599 -12.8599 -12.8599 -12.8599 -12.5059 -12.5059 -12.5059 -12.5059
   -12.3831 -12.3831 -12.3831 -12.3831  -3.3373  -3.3373  -3.3373  -3.3373
    -0.4137  -0.4137  -0.4137  -0.4137  -0.0952  -0.0952  -0.0952  -0.0952
     0.6642   0.6642   0.6642   0.6642   1.4341   1.4341   1.4341   1.4341
     1.7759   1.7759   1.7759   1.7759   2.2152   2.2152   2.2152   2.2152
     2.4617   2.4617   2.4617   2.4617   2.8705   2.8705   2.8705   2.8705
     3.5359   3.5359   3.5359   3.5359   3.7294   3.7294   3.7294   3.7294
     7.6346   7.6346

          k = 0.0000 0.0000-0.8660 (  5616 PWs)   bands (ev):

   -12.6222 -12.6222 -12.6222 -12.6222 -12.6222 -12.6222 -12.6222 -12.6222
   -12.5128 -12.5128 -12.5128 -12.5128  -3.5230  -3.5230  -3.5230  -3.5230
     0.0608   0.0608   0.0608   0.0608   0.2536   0.2536   0.2536   0.2536
     0.2536   0.2536   0.2536   0.2536   1.5261   1.5261   1.5261   1.5261
     1.5261   1.5261   1.5261   1.5261   2.1321   2.1321   2.1321   2.1321
     2.6874   2.6874   2.6874   2.6874   2.6874   2.6874   2.6874   2.6874
     3.4954   3.4954   3.4954   3.4954   3.8275   3.8275   3.8275   3.8275
     8.2996   8.2996

     the Fermi energy is     3.1464 ev

!    total energy              =    -218.78220675 Ry
     Harris-Foulkes estimate   =    -218.78220738 Ry
     estimated scf accuracy    <       0.00000093 Ry

     The total energy is the sum of the following terms:

     one-electron contribution =     -68.70523680 Ry
     hartree contribution      =      60.46422616 Ry
     xc contribution           =     -57.95482961 Ry
     ewald contribution        =    -152.58139096 Ry
     smearing contrib. (-TS)   =      -0.00497554 Ry

     convergence has been achieved in   7 iterations

     Forces acting on atoms (cartesian axes, Ry/au):

     atom    1 type  1   force =     0.00000000    0.00000000   -0.52859050
     atom    2 type  1   force =    -0.00000000    0.00000000    0.52859050
     atom    3 type  1   force =    -0.00000000   -0.00000000   -0.52859050
     atom    4 type  1   force =     0.00000000   -0.00000000    0.52859050
     atom    5 type  2   force =    -0.07058496   -0.00000000    0.00000000
     atom    6 type  2   force =    -0.03529248   -0.06112837   -0.00000000
     atom    7 type  2   force =     0.03529248   -0.06112837   -0.00000000
     atom    8 type  2   force =    -0.03529248    0.06112837    0.00000000
     atom    9 type  2   force =     0.03529248    0.06112837    0.00000000
     atom   10 type  2   force =     0.07058496    0.00000000    0.00000000

     Total force =     1.071226     Total SCF correction =     0.000255


     Computing stress (Cartesian axis) and pressure

          total   stress  (Ry/bohr**3)                   (kbar)     P= -144.96
  -0.00362535   0.00000000  -0.00000000       -533.31      0.00     -0.00
  -0.00000000  -0.00362535  -0.00000000         -0.00   -533.31     -0.00
  -0.00000000  -0.00000000   0.00429450         -0.00     -0.00    631.74


     BFGS Geometry Optimization

     number of scf cycles    =   1
     number of bfgs steps    =   0

     enthalpy           new  =    -218.7822067520 Ry

     new trust radius        =       0.5000000000 bohr
     new conv_thr            =       0.0000010000 Ry

     new unit-cell volume =    878.46799 a.u.^3 (   130.17552 Ang^3 )
     density =      2.60124 g/cm^3

CELL_PARAMETERS (alat=  9.78500192)
   0.658351524  -0.380099429   0.624506383
   0.000000000   0.760198859   0.624506383
  -0.658351524  -0.380099429   0.624506383

ATOMIC_POSITIONS (crystal)
Al       0.124172937   0.124172937   0.124172937
Al       0.375827063   0.375827063   0.375827063
Al       0.624172937   0.624172937   0.624172937
Al       0.875827063   0.875827063   0.875827063
O        0.052219547   0.750000000   0.447780453
O        0.250000000   0.552219547   0.947780453
O        0.447780453   0.052219547   0.750000000
O        0.552219547   0.947780453   0.250000000
O        0.750000000   0.447780453   0.052219547
O        0.947780453   0.250000000   0.552219547



     Writing output data file pwscf.save\
     NEW-OLD atomic charge density approx. for the potential

     negative rho (up, down):  1.721E-02 0.000E+00
     extrapolated charge   44.80906, renormalised to   48.00000

     total cpu time spent up to now is      236.0 secs

     Self-consistent Calculation

     iteration #  1     ecut=    50.00 Ry     beta= 0.70
     Davidson diagonalization with overlap
     ethr =  1.00E-06,  avg # of iterations =  9.6

     negative rho (up, down):  2.737E-03 0.000E+00

     total cpu time spent up to now is      288.4 secs

     total energy              =    -215.91609295 Ry
     Harris-Foulkes estimate   =    -224.37085772 Ry
     estimated scf accuracy    <       3.97812921 Ry

     iteration #  2     ecut=    50.00 Ry     beta= 0.70
     Davidson diagonalization with overlap
     ethr =  8.29E-03,  avg # of iterations =  4.0

     negative rho (up, down):  2.084E-04 0.000E+00

     total cpu time spent up to now is      320.5 secs

     total energy              =    -217.12470188 Ry
     Harris-Foulkes estimate   =    -226.67942303 Ry
     estimated scf accuracy    <      34.53564458 Ry

     iteration #  3     ecut=    50.00 Ry     beta= 0.70
     Davidson diagonalization with overlap
     ethr =  8.29E-03,  avg # of iterations =  3.1

     negative rho (up, down):  1.291E-04 0.000E+00

     total cpu time spent up to now is      348.4 secs

     total energy              =    -219.83372452 Ry
     Harris-Foulkes estimate   =    -220.14015888 Ry
     estimated scf accuracy    <       2.09028990 Ry

     iteration #  4     ecut=    50.00 Ry     beta= 0.70
     Davidson diagonalization with overlap
     ethr =  4.35E-03,  avg # of iterations =  1.0

     negative rho (up, down):  2.718E-05 0.000E+00

     total cpu time spent up to now is      366.4 secs

     total energy              =    -219.73466872 Ry
     Harris-Foulkes estimate   =    -219.88290040 Ry
     estimated scf accuracy    <       0.81763403 Ry

     iteration #  5     ecut=    50.00 Ry     beta= 0.70
     Davidson diagonalization with overlap
     ethr =  1.70E-03,  avg # of iterations =  1.0

     negative rho (up, down):  5.049E-07 0.000E+00

     total cpu time spent up to now is      385.0 secs

     total energy              =    -219.75375358 Ry
     Harris-Foulkes estimate   =    -219.78048270 Ry
     estimated scf accuracy    <       0.14875658 Ry

     iteration #  6     ecut=    50.00 Ry     beta= 0.70
     Davidson diagonalization with overlap
     ethr =  3.10E-04,  avg # of iterations =  1.5

     total cpu time spent up to now is      403.5 secs

     total energy              =    -219.75141179 Ry
     Harris-Foulkes estimate   =    -219.76255565 Ry
     estimated scf accuracy    <       0.03764484 Ry

     iteration #  7     ecut=    50.00 Ry     beta= 0.70
     Davidson diagonalization with overlap
     ethr =  7.84E-05,  avg # of iterations =  2.3

     total cpu time spent up to now is      426.3 secs

     total energy              =    -219.75973401 Ry
     Harris-Foulkes estimate   =    -219.75987593 Ry
     estimated scf accuracy    <       0.00044494 Ry

     iteration #  8     ecut=    50.00 Ry     beta= 0.70
     Davidson diagonalization with overlap
     ethr =  9.27E-07,  avg # of iterations =  2.8

     total cpu time spent up to now is      455.9 secs

     total energy              =    -219.75984652 Ry
     Harris-Foulkes estimate   =    -219.75984882 Ry
     estimated scf accuracy    <       0.00001193 Ry

     iteration #  9     ecut=    50.00 Ry     beta= 0.70
     Davidson diagonalization with overlap
     ethr =  2.49E-08,  avg # of iterations =  3.0

     total cpu time spent up to now is      487.4 secs

     total energy              =    -219.75978202 Ry
     Harris-Foulkes estimate   =    -219.75989070 Ry
     estimated scf accuracy    <       0.00024749 Ry

     iteration # 10     ecut=    50.00 Ry     beta= 0.70
     Davidson diagonalization with overlap
     ethr =  2.49E-08,  avg # of iterations =  3.2

     total cpu time spent up to now is      521.3 secs

     total energy              =    -219.75983961 Ry
     Harris-Foulkes estimate   =    -219.75985936 Ry
     estimated scf accuracy    <       0.00006619 Ry

     iteration # 11     ecut=    50.00 Ry     beta= 0.70
     Davidson diagonalization with overlap
     ethr =  2.49E-08,  avg # of iterations =  2.5

     total cpu time spent up to now is      545.0 secs

     End of self-consistent calculation

          k = 0.0000 0.0000 0.0000 (  5575 PWs)   bands (ev):

   -13.1321 -13.1321 -12.0766 -12.0766 -12.0766 -12.0766 -11.7063 -11.7063
   -11.7063 -11.7063 -11.2278 -11.2278  -1.9602  -1.9602  -1.2583  -1.2583
     0.1779   0.1779   0.1779   0.1779   0.2157   0.2157   0.2157   0.2157
     0.5598   0.5598   0.8266   0.8266   1.3384   1.3384   1.3384   1.3384
     2.0496   2.0496   2.0496   2.0496   2.0561   2.0561   2.0701   2.0701
     3.2508   3.2508   3.2508   3.2508   3.8099   3.8099   3.8099   3.8099
     4.2147   4.2147   4.4909   4.4909   6.6164   6.6164   6.9538   6.9538
     8.6292   8.6292

          k = 0.3797 0.2192-0.2669 (  5622 PWs)   bands (ev):

   -12.6444 -12.6444 -12.6444 -12.6444 -11.8721 -11.8721 -11.8721 -11.8721
   -11.4868 -11.4868 -11.4868 -11.4868  -1.5485  -1.5485  -1.5485  -1.5485
    -0.7922  -0.7922  -0.7922  -0.7922   0.5455   0.5455   0.5455   0.5455
     1.2246   1.2246   1.2246   1.2246   1.6436   1.6436   1.6436   1.6436
     2.2446   2.2446   2.2446   2.2446   2.4073   2.4073   2.4073   2.4073
     3.0396   3.0396   3.0396   3.0396   3.7121   3.7121   3.7121   3.7121
     4.3414   4.3414   4.3414   4.3414   6.1598   6.1598   6.1598   6.1598
     9.4859   9.4859

          k = 0.0000 0.1462 0.0890 (  5582 PWs)   bands (ev):

   -13.0701 -13.0701 -12.1603 -12.1603 -12.0481 -12.0481 -11.7234 -11.7234
   -11.6787 -11.6787 -11.2655 -11.2655  -2.0161  -2.0161  -1.1190  -1.1190
    -0.1553  -0.1553   0.0324   0.0324   0.1896   0.1896   0.3459   0.3459
     0.6065   0.6065   0.9407   0.9407   1.1634   1.1634   1.2758   1.2758
     2.0695   2.0695   2.2461   2.2461   2.2916   2.2916   2.6537   2.6537
     3.1408   3.1408   3.1425   3.1425   3.7038   3.7038   3.7369   3.7369
     4.1508   4.1508   4.5157   4.5157   6.5441   6.5441   6.7016   6.7016
     8.6894   8.6894

          k = 0.3797 0.3654-0.1779 (  5574 PWs)   bands (ev):

   -12.6226 -12.6226 -12.5758 -12.5758 -11.9436 -11.9436 -11.8411 -11.8411
   -11.5558 -11.5558 -11.4872 -11.4872  -1.9947  -1.9947  -1.1486  -1.1486
    -0.9912  -0.9912  -0.4270  -0.4270   0.4482   0.4482   0.6308   0.6308
     0.9706   0.9706   1.2178   1.2178   1.4468   1.4468   1.7842   1.7842
     2.3009   2.3009   2.4090   2.4090   2.5086   2.5086   2.6311   2.6311
     3.0071   3.0071   3.0810   3.0810   3.6354   3.6354   3.7370   3.7370
     4.1761   4.1761   4.4583   4.4583   5.9289   5.9289   6.2820   6.2820
     9.0230   9.0230

          k = 0.0000 0.2923 0.1779 (  5578 PWs)   bands (ev):

   -12.8958 -12.8958 -12.3743 -12.3743 -11.9717 -11.9717 -11.7808 -11.7808
   -11.6006 -11.6006 -11.3633 -11.3633  -1.9278  -1.9278  -0.9875  -0.9875
    -0.9051  -0.9051  -0.4300  -0.4300   0.3775   0.3775   0.6780   0.6780
     0.9929   0.9929   1.0712   1.0712   1.1687   1.1687   1.4418   1.4418
     2.1522   2.1522   2.4209   2.4209   2.4900   2.4900   2.8177   2.8177
     2.9701   2.9701   3.1359   3.1359   3.5858   3.5858   3.8490   3.8490
     3.9803   3.9803   4.5117   4.5117   6.2595   6.2595   6.3549   6.3549
     9.0179   9.0179

          k = 0.3797 0.5116-0.0890 (  5578 PWs)   bands (ev):

   -12.5243 -12.5243 -12.4411 -12.4411 -12.0822 -12.0822 -11.8337 -11.8337
   -11.6597 -11.6597 -11.5238 -11.5238  -2.3040  -2.3040  -1.0416  -1.0416
    -0.9201  -0.9201  -0.0940  -0.0940   0.1423   0.1423   0.5308   0.5308
     1.0436   1.0436   1.0974   1.0974   1.7328   1.7328   1.8792   1.8792
     2.2467   2.2467   2.5566   2.5566   2.6412   2.6412   2.8910   2.8910
     3.0084   3.0084   3.1499   3.1499   3.4085   3.4085   3.7748   3.7748
     4.2066   4.2066   4.4688   4.4688   5.5410   5.5410   6.3607   6.3607
     8.7394   8.7394

          k = 0.3797-0.2192-0.5338 (  5552 PWs)   bands (ev):

   -12.4433 -12.4433 -12.3311 -12.3311 -12.2045 -12.2045 -11.8724 -11.8724
   -11.6825 -11.6825 -11.5504 -11.5504  -2.4109  -2.4109  -1.0396  -1.0396
    -0.8181  -0.8181  -0.0634  -0.0634   0.0979   0.0979   0.2272   0.2272
     1.2719   1.2719   1.2978   1.2978   1.9030   1.9030   1.9282   1.9282
     2.1503   2.1503   2.4105   2.4105   2.7359   2.7359   3.0052   3.0052
     3.0169   3.0169   3.1515   3.1515   3.3170   3.3170   3.7727   3.7727
     4.2783   4.2783   4.5264   4.5264   5.2735   5.2735   6.3771   6.3771
     8.6750   8.6750

          k = 0.1266 0.0731 0.1779 (  5587 PWs)   bands (ev):

   -13.0206 -13.0206 -12.1660 -12.1660 -12.0453 -12.0453 -11.7424 -11.7424
   -11.6955 -11.6955 -11.2934 -11.2934  -2.2700  -2.2700  -0.7433  -0.7433
    -0.2503  -0.2503   0.0311   0.0311   0.2544   0.2544   0.3629   0.3629
     0.5169   0.5169   0.8467   0.8467   1.2219   1.2219   1.3420   1.3420
     1.9502   1.9502   2.2582   2.2582   2.4820   2.4820   2.7763   2.7763
     2.9975   2.9975   3.2949   3.2949   3.6237   3.6237   3.7979   3.7979
     4.0868   4.0868   4.4885   4.4885   6.5087   6.5087   6.5762   6.5762
     9.0434   9.0434

          k = 0.5063 0.2923-0.0890 (  5608 PWs)   bands (ev):

   -12.6027 -12.6027 -12.5155 -12.5155 -11.9666 -11.9666 -11.8319 -11.8319
   -11.6078 -11.6078 -11.5157 -11.5157  -2.3315  -2.3315  -1.3295  -1.3295
    -0.5478  -0.5478  -0.0939  -0.0939   0.5366   0.5366   0.6279   0.6279
     0.7437   0.7437   1.3709   1.3709   1.3927   1.3927   1.7561   1.7561
     2.0663   2.0663   2.4467   2.4467   2.5142   2.5142   2.7462   2.7462
     2.9973   2.9973   3.2586   3.2586   3.5294   3.5294   3.7066   3.7066
     4.0120   4.0120   4.5170   4.5170   5.9313   5.9313   6.4735   6.4735
     8.7123   8.7123

          k = 0.1266 0.2192 0.2669 (  5585 PWs)   bands (ev):

   -12.8600 -12.8600 -12.3277 -12.3277 -11.9621 -11.9621 -11.8240 -11.8240
   -11.6501 -11.6501 -11.3793 -11.3793  -2.2836  -2.2836  -0.6237  -0.6237
    -0.5876  -0.5876  -0.5568  -0.5568   0.3762   0.3762   0.7717   0.7717
     0.8436   0.8436   1.0267   1.0267   1.0743   1.0743   1.3364   1.3364
     2.1238   2.1238   2.4478   2.4478   2.6703   2.6703   2.9043   2.9043
     3.0373   3.0373   3.1881   3.1881   3.5728   3.5728   3.7787   3.7787
     3.9438   3.9438   4.5012   4.5012   6.0986   6.0986   6.4621   6.4621
     9.2583   9.2583

          k = 0.5063 0.4385 0.0000 (  5594 PWs)   bands (ev):

   -12.4995 -12.4995 -12.3916 -12.3916 -12.0555 -12.0555 -11.8473 -11.8473
   -11.6978 -11.6978 -11.5847 -11.5847  -2.5376  -2.5376  -1.5381  -1.5381
    -0.2241  -0.2241   0.1284   0.1284   0.4902   0.4902   0.5857   0.5857
     0.6799   0.6799   1.3710   1.3710   1.6176   1.6176   1.8642   1.8642
     2.1992   2.1992   2.3573   2.3573   2.6558   2.6558   2.8484   2.8484
     2.9242   2.9242   3.2406   3.2406   3.3385   3.3385   3.6955   3.6955
     4.1038   4.1038   4.5397   4.5397   5.7199   5.7199   6.4533   6.4533
     8.7029   8.7029

          k = 0.5063-0.2923-0.4448 (  5628 PWs)   bands (ev):

   -12.3920 -12.3920 -12.2913 -12.2913 -12.1766 -12.1766 -11.8904 -11.8904
   -11.7312 -11.7312 -11.6169 -11.6169  -2.5058  -2.5058  -1.6504  -1.6504
    -0.1943  -0.1943   0.1182   0.1182   0.2134   0.2134   0.3672   0.3672
     1.0705   1.0705   1.5868   1.5868   1.7773   1.7773   1.9524   1.9524
     2.1758   2.1758   2.3895   2.3895   2.7313   2.7313   2.8314   2.8314
     2.9997   2.9997   3.0705   3.0705   3.3094   3.3094   3.6817   3.6817
     4.2631   4.2631   4.5525   4.5525   5.4847   5.4847   6.2666   6.2666
     8.9282   8.9282

          k = 0.1266-0.3654-0.0890 (  5585 PWs)   bands (ev):

   -12.8217 -12.8217 -12.3637 -12.3637 -12.0539 -12.0539 -11.7457 -11.7457
   -11.6024 -11.6024 -11.4217 -11.4217  -1.5388  -1.5388  -1.4365  -1.4365
    -1.2129  -1.2129  -0.1413  -0.1413   0.2967   0.2967   0.5638   0.5638
     0.8820   0.8820   1.0341   1.0341   1.3963   1.3963   1.9166   1.9166
     2.2765   2.2765   2.4086   2.4086   2.4965   2.4965   2.6385   2.6385
     2.9633   2.9633   3.1434   3.1434   3.5731   3.5731   3.9121   3.9121
     4.1825   4.1825   4.4122   4.4122   6.0276   6.0276   6.3235   6.3235
     8.4620   8.4620

          k = 0.5063-0.1462-0.3558 (  5594 PWs)   bands (ev):

   -12.4542 -12.4542 -12.4055 -12.4055 -12.0680 -12.0680 -11.8858 -11.8858
   -11.6841 -11.6841 -11.5868 -11.5868  -2.2280  -2.2280  -1.6867  -1.6867
    -0.4304  -0.4304  -0.0902  -0.0902   0.1850   0.1850   0.4587   0.4587
     1.1164   1.1164   1.4318   1.4318   1.6643   1.6643   1.9361   1.9361
     2.3314   2.3314   2.5456   2.5456   2.6671   2.6671   2.8426   2.8426
     2.9093   2.9093   3.0560   3.0560   3.4600   3.4600   3.6860   3.6860
     4.3452   4.3452   4.4542   4.4542   5.5916   5.5916   6.0870   6.0870
     9.0423   9.0423

          k = 0.1266-0.2192-0.0000 (  5587 PWs)   bands (ev):

   -12.9990 -12.9990 -12.1780 -12.1780 -12.1060 -12.1060 -11.7038 -11.7038
   -11.6687 -11.6687 -11.3136 -11.3136  -1.7486  -1.7486  -1.2944  -1.2944
    -0.7270  -0.7270   0.1074   0.1074   0.1197   0.1197   0.4653   0.4653
     0.6167   0.6167   0.8922   0.8922   1.3639   1.3639   1.4895   1.4895
     2.2101   2.2101   2.3370   2.3370   2.4153   2.4153   2.7412   2.7412
     3.0212   3.0212   3.2664   3.2664   3.6152   3.6152   3.8002   3.8002
     4.0775   4.0775   4.4942   4.4942   6.3177   6.3177   6.5715   6.5715
     8.3448   8.3448

          k = 0.5063-0.0000-0.2669 (  5608 PWs)   bands (ev):

   -12.5493 -12.5493 -12.5493 -12.5493 -11.9199 -11.9199 -11.9199 -11.9199
   -11.5550 -11.5550 -11.5550 -11.5550  -1.7489  -1.7489  -1.7489  -1.7489
    -0.5509  -0.5509  -0.5509  -0.5509   0.4255   0.4255   0.4255   0.4255
     1.1415   1.1415   1.1415   1.1415   1.7484   1.7484   1.7484   1.7484
     2.3924   2.3924   2.3924   2.3924   2.6967   2.6967   2.6967   2.6967
     2.9666   2.9666   2.9666   2.9666   3.6765   3.6765   3.6765   3.6765
     4.3701   4.3701   4.3701   4.3701   5.9414   5.9414   5.9414   5.9414
     9.1358   9.1358

          k = 0.2532 0.1462 0.3558 (  5584 PWs)   bands (ev):

   -12.7222 -12.7222 -12.3096 -12.3096 -11.9542 -11.9542 -11.9292 -11.9292
   -11.6790 -11.6790 -11.4482 -11.4482  -2.4261  -2.4261  -0.7901  -0.7901
    -0.6089  -0.6089  -0.3147  -0.3147   0.1675   0.1675   0.7610   0.7610
     0.8043   0.8043   1.1631   1.1631   1.3223   1.3223   1.6707   1.6707
     1.9273   1.9273   2.5692   2.5692   2.8637   2.8637   2.9632   2.9632
     3.1145   3.1145   3.1529   3.1529   3.4043   3.4043   3.8470   3.8470
     3.9921   3.9921   4.4864   4.4864   5.7325   5.7325   6.4424   6.4424
     9.1395   9.1395

          k = 0.6329 0.3654 0.0890 (  5614 PWs)   bands (ev):

   -12.3895 -12.3895 -12.2719 -12.2719 -12.0290 -12.0290 -11.9021 -11.9021
   -11.7839 -11.7839 -11.7306 -11.7306  -2.6984  -2.6984  -1.9662  -1.9662
     0.2983   0.2983   0.4561   0.4561   0.6123   0.6123   0.6434   0.6434
     0.8458   0.8458   1.3642   1.3642   1.6888   1.6888   1.9581   1.9581
     2.0757   2.0757   2.2367   2.2367   2.4699   2.4699   2.7873   2.7873
     2.9940   2.9940   3.2020   3.2020   3.2697   3.2697   3.4941   3.4941
     4.2841   4.2841   4.5943   4.5943   5.7582   5.7582   6.3055   6.3055
     9.0356   9.0356

          k = 0.6329-0.3654-0.3558 (  5604 PWs)   bands (ev):

   -12.2497 -12.2497 -12.1779 -12.1779 -12.1030 -12.1030 -11.9460 -11.9460
   -11.8595 -11.8595 -11.7904 -11.7904  -2.6230  -2.6230  -2.2175  -2.2175
     0.4198   0.4198   0.4545   0.4545   0.5468   0.5468   0.6778   0.6778
     0.9693   0.9693   1.3565   1.3565   1.8936   1.8936   2.0091   2.0091
     2.1648   2.1648   2.3500   2.3500   2.3758   2.3758   2.8737   2.8737
     2.8835   2.8835   3.0322   3.0322   3.2708   3.2708   3.4233   3.4233
     4.4573   4.4573   4.6104   4.6104   5.6982   5.6982   6.0415   6.0415
     9.5127   9.5127

          k = 0.2532-0.4385-0.0000 (  5584 PWs)   bands (ev):

   -12.6572 -12.6572 -12.3390 -12.3390 -12.1705 -12.1705 -11.6913 -11.6913
   -11.6783 -11.6783 -11.5120 -11.5120  -1.9482  -1.9482  -1.2429  -1.2429
    -1.2111  -1.2111   0.1527   0.1527   0.2286   0.2286   0.3729   0.3729
     0.9348   0.9348   1.0318   1.0318   1.5240   1.5240   2.2855   2.2855
     2.3888   2.3888   2.4009   2.4009   2.5844   2.5844   2.6660   2.6660
     3.0183   3.0183   3.0791   3.0791   3.4720   3.4720   3.8165   3.8165
     4.3375   4.3375   4.3716   4.3716   5.7084   5.7084   6.3219   6.3219
     8.3484   8.3484

          k = 0.6329-0.2192-0.2669 (  5614 PWs)   bands (ev):

   -12.3052 -12.3052 -12.3052 -12.3052 -12.0120 -12.0120 -12.0120 -12.0120
   -11.7404 -11.7404 -11.7404 -11.7404  -2.2720  -2.2720  -2.2720  -2.2720
     0.1203   0.1203   0.1203   0.1203   0.4719   0.4719   0.4719   0.4719
     1.2559   1.2559   1.2559   1.2559   1.9183   1.9183   1.9183   1.9183
     2.4372   2.4372   2.4372   2.4372   2.6887   2.6887   2.6887   2.6887
     2.8871   2.8871   2.8871   2.8871   3.4542   3.4542   3.4542   3.4542
     4.4805   4.4805   4.4805   4.4805   5.8189   5.8189   5.8189   5.8189
     9.3902   9.3902

          k = 0.0000-0.0000-0.8006 (  5616 PWs)   bands (ev):

   -12.0636 -12.0636 -12.0636 -12.0636 -12.0032 -12.0032 -12.0032 -12.0032
   -12.0032 -12.0032 -12.0032 -12.0032  -2.5514  -2.5514  -2.5514  -2.5514
     0.7353   0.7353   0.7353   0.7353   0.8908   0.8908   0.8908   0.8908
     0.8908   0.8908   0.8908   0.8908   2.0292   2.0292   2.0292   2.0292
     2.0292   2.0292   2.0292   2.0292   2.6068   2.6068   2.6068   2.6068
     3.1473   3.1473   3.1473   3.1473   3.1473   3.1473   3.1473   3.1473
     4.6286   4.6286   4.6286   4.6286   5.8229   5.8229   5.8229   5.8229
    10.2131  10.2131

     the Fermi energy is     3.9347 ev

!    total energy              =    -219.75984743 Ry
     Harris-Foulkes estimate   =    -219.75984764 Ry
     estimated scf accuracy    <       0.00000026 Ry

     The total energy is the sum of the following terms:

     one-electron contribution =     -64.65858545 Ry
     hartree contribution      =      59.68426463 Ry
     xc contribution           =     -58.18001393 Ry
     ewald contribution        =    -156.60303443 Ry
     smearing contrib. (-TS)   =      -0.00247825 Ry

     convergence has been achieved in  11 iterations

     Forces acting on atoms (cartesian axes, Ry/au):

     atom    1 type  1   force =    -0.00000000    0.00000000    0.05179534
     atom    2 type  1   force =     0.00000000   -0.00000000   -0.05179534
     atom    3 type  1   force =     0.00000000    0.00000000    0.05179534
     atom    4 type  1   force =    -0.00000000   -0.00000000   -0.05179534
     atom    5 type  2   force =    -0.04127485    0.00000000   -0.00000000
     atom    6 type  2   force =    -0.02063743   -0.03574507   -0.00000000
     atom    7 type  2   force =     0.02063743   -0.03574507   -0.00000000
     atom    8 type  2   force =    -0.02063743    0.03574507    0.00000000
     atom    9 type  2   force =     0.02063743    0.03574507    0.00000000
     atom   10 type  2   force =     0.04127485    0.00000000    0.00000000

     Total force =     0.144751     Total SCF correction =     0.000083


     Computing stress (Cartesian axis) and pressure

          total   stress  (Ry/bohr**3)                   (kbar)     P= -327.97
  -0.00395348   0.00000000   0.00000000       -581.58      0.00      0.00
   0.00000000  -0.00395348  -0.00000000          0.00   -581.58     -0.00
  -0.00000000  -0.00000000   0.00121854         -0.00     -0.00    179.25


     number of scf cycles    =   2
     number of bfgs steps    =   1

     enthalpy           old  =    -218.7822067520 Ry
     enthalpy           new  =    -219.7598474305 Ry

     CASE: enthalpy          _new < enthalpy          _old

     new trust radius        =       0.8000000000 bohr
     new conv_thr            =       0.0000000518 Ry

     new unit-cell volume =    693.00111 a.u.^3 (   102.69217 Ang^3 )
     density =      3.29740 g/cm^3

CELL_PARAMETERS (alat=  9.78500192)
   0.569502049  -0.328802161   0.658369916
   0.000000000   0.657604322   0.658369916
  -0.569502049  -0.328802161   0.658369916

ATOMIC_POSITIONS (crystal)
Al       0.117953794   0.117953794   0.117953794
Al       0.382046206   0.382046206   0.382046206
Al       0.617953794   0.617953794   0.617953794
Al       0.882046206   0.882046206   0.882046206
O        0.047932334   0.750000000   0.452067666
O        0.250000000   0.547932334   0.952067666
O        0.452067666   0.047932334   0.750000000
O        0.547932334   0.952067666   0.250000000
O        0.750000000   0.452067666   0.047932334
O        0.952067666   0.250000000   0.547932334



     Writing output data file pwscf.save\
     NEW-OLD atomic charge density approx. for the potential

     negative rho (up, down):  5.490E-02 0.000E+00
     extrapolated charge   35.15618, renormalised to   48.00000

     total cpu time spent up to now is      590.6 secs

     Self-consistent Calculation

     iteration #  1     ecut=    50.00 Ry     beta= 0.70
     Davidson diagonalization with overlap
     ethr =  1.00E-06,  avg # of iterations = 10.4

     negative rho (up, down):  1.578E-02 0.000E+00

     total cpu time spent up to now is      646.0 secs

     total energy              =    -202.07028669 Ry
     Harris-Foulkes estimate   =    -239.01628035 Ry
     estimated scf accuracy    <      17.91398298 Ry

     iteration #  2     ecut=    50.00 Ry     beta= 0.70
     Davidson diagonalization with overlap
     ethr =  1.00E-02,  avg # of iterations =  4.5

     total cpu time spent up to now is      696.4 secs

     total energy              =    -216.40073152 Ry
     Harris-Foulkes estimate   =    -241.99746774 Ry
     estimated scf accuracy    <      75.04958045 Ry

     iteration #  3     ecut=    50.00 Ry     beta= 0.70
     Davidson diagonalization with overlap
     ethr =  1.00E-02,  avg # of iterations =  3.1

     negative rho (up, down):  5.346E-05 0.000E+00

     total cpu time spent up to now is      738.4 secs

     total energy              =    -220.85731270 Ry
     Harris-Foulkes estimate   =    -222.54264033 Ry
     estimated scf accuracy    <       7.02760904 Ry

     iteration #  4     ecut=    50.00 Ry     beta= 0.70
     Davidson diagonalization with overlap
     ethr =  1.00E-02,  avg # of iterations =  1.0

     negative rho (up, down):  4.543E-05 0.000E+00

     total cpu time spent up to now is      758.7 secs

     total energy              =    -220.52983741 Ry
     Harris-Foulkes estimate   =    -221.12113570 Ry
     estimated scf accuracy    <       2.07194179 Ry

     iteration #  5     ecut=    50.00 Ry     beta= 0.70
     Davidson diagonalization with overlap
     ethr =  4.32E-03,  avg # of iterations =  2.1

     total cpu time spent up to now is      783.2 secs

     total energy              =    -220.75112105 Ry
     Harris-Foulkes estimate   =    -220.75801961 Ry
     estimated scf accuracy    <       0.15817061 Ry

     iteration #  6     ecut=    50.00 Ry     beta= 0.70
     Davidson diagonalization with overlap
     ethr =  3.30E-04,  avg # of iterations =  2.1

     total cpu time spent up to now is      807.0 secs

     total energy              =    -220.69245539 Ry
     Harris-Foulkes estimate   =    -220.75304131 Ry
     estimated scf accuracy    <       0.14541170 Ry

     iteration #  7     ecut=    50.00 Ry     beta= 0.70
     Davidson diagonalization with overlap
     ethr =  3.03E-04,  avg # of iterations =  2.1

     total cpu time spent up to now is      838.3 secs

     total energy              =    -220.71794153 Ry
     Harris-Foulkes estimate   =    -220.71807555 Ry
     estimated scf accuracy    <       0.00066948 Ry

     iteration #  8     ecut=    50.00 Ry     beta= 0.70
     Davidson diagonalization with overlap
     ethr =  1.39E-06,  avg # of iterations =  6.1

     total cpu time spent up to now is      870.6 secs

     total energy              =    -220.71822136 Ry
     Harris-Foulkes estimate   =    -220.71824129 Ry
     estimated scf accuracy    <       0.00055611 Ry

     iteration #  9     ecut=    50.00 Ry     beta= 0.70
     Davidson diagonalization with overlap
     ethr =  1.16E-06,  avg # of iterations =  1.0

     total cpu time spent up to now is      889.7 secs

     total energy              =    -220.71789985 Ry
     Harris-Foulkes estimate   =    -220.71822235 Ry
     estimated scf accuracy    <       0.00054351 Ry

     iteration # 10     ecut=    50.00 Ry     beta= 0.70
     Davidson diagonalization with overlap
     ethr =  1.13E-06,  avg # of iterations =  2.0

     total cpu time spent up to now is      915.3 secs

     total energy              =    -220.71806987 Ry
     Harris-Foulkes estimate   =    -220.71808984 Ry
     estimated scf accuracy    <       0.00017688 Ry

     iteration # 11     ecut=    50.00 Ry     beta= 0.70
     Davidson diagonalization with overlap
     ethr =  3.68E-07,  avg # of iterations =  1.0

     total cpu time spent up to now is      932.6 secs

     total energy              =    -220.71802580 Ry
     Harris-Foulkes estimate   =    -220.71807371 Ry
     estimated scf accuracy    <       0.00015308 Ry

     iteration # 12     ecut=    50.00 Ry     beta= 0.70
     Davidson diagonalization with overlap
     ethr =  3.19E-07,  avg # of iterations =  1.0

     total cpu time spent up to now is      951.8 secs

     total energy              =    -220.71802257 Ry
     Harris-Foulkes estimate   =    -220.71803239 Ry
     estimated scf accuracy    <       0.00003612 Ry

     iteration # 13     ecut=    50.00 Ry     beta= 0.70
     Davidson diagonalization with overlap
     ethr =  7.53E-08,  avg # of iterations =  2.0

     total cpu time spent up to now is      972.2 secs

     total energy              =    -220.71802465 Ry
     Harris-Foulkes estimate   =    -220.71802588 Ry
     estimated scf accuracy    <       0.00000430 Ry

     iteration # 14     ecut=    50.00 Ry     beta= 0.70
     Davidson diagonalization with overlap
     ethr =  8.96E-09,  avg # of iterations =  2.0

     total cpu time spent up to now is      990.5 secs

     total energy              =    -220.71802476 Ry
     Harris-Foulkes estimate   =    -220.71802501 Ry
     estimated scf accuracy    <       0.00000066 Ry

     iteration # 15     ecut=    50.00 Ry     beta= 0.70
     Davidson diagonalization with overlap
     ethr =  1.38E-09,  avg # of iterations =  2.0

     total cpu time spent up to now is     1010.9 secs

     End of self-consistent calculation

          k = 0.0000 0.0000 0.0000 (  5575 PWs)   bands (ev):

   -11.9490 -11.9490 -10.1596 -10.1596 -10.1596 -10.1596  -9.6698  -9.6698
    -9.6698  -9.6698  -8.8853  -8.8853   0.0440   0.0440   0.5046   0.5046
     1.4194   1.4194   1.4194   1.4194   1.5490   1.5490   1.5490   1.5490
     2.3590   2.3590   2.6349   2.6349   3.6127   3.6127   3.6127   3.6127
     3.6561   3.6561   4.5658   4.5658   4.5658   4.5658   5.6848   5.6848
     5.8408   5.8408   5.8408   5.8408   6.4488   6.4488   6.4488   6.4488
     6.9446   6.9446   8.8860   8.8860  12.4975  12.4975  12.8319  12.8319
    13.2332  13.2332

          k = 0.4390 0.2534-0.2532 (  5622 PWs)   bands (ev):

   -11.1520 -11.1520 -11.1520 -11.1520  -9.9382  -9.9382  -9.9382  -9.9382
    -9.2760  -9.2760  -9.2760  -9.2760   0.3932   0.3932   0.3932   0.3932
     0.9158   0.9158   0.9158   0.9158   1.9503   1.9503   1.9503   1.9503
     3.3479   3.3479   3.3479   3.3479   3.6706   3.6706   3.6706   3.6706
     4.2016   4.2016   4.2016   4.2016   4.6120   4.6120   4.6120   4.6120
     5.4146   5.4146   5.4146   5.4146   6.4191   6.4191   6.4191   6.4191
     8.2794   8.2794   8.2794   8.2794  11.7880  11.7880  11.7880  11.7880
    13.8984  13.8984

          k = 0.0000 0.1690 0.0844 (  5582 PWs)   bands (ev):

   -11.8501 -11.8501 -10.3105 -10.3105 -10.1341 -10.1341  -9.7053  -9.7053
    -9.6157  -9.6157  -8.9383  -8.9383   0.0104   0.0104   0.4563   0.4563
     1.2171   1.2171   1.4336   1.4336   1.6301   1.6301   2.0823   2.0823
     2.6049   2.6049   2.7273   2.7273   3.2074   3.2074   3.4158   3.4158
     3.9242   3.9242   4.1185   4.1185   4.7299   4.7299   5.5298   5.5298
     5.7314   5.7314   6.2264   6.2264   6.3972   6.3972   6.6193   6.6193
     6.9718   6.9718   8.7702   8.7702  12.1377  12.1377  12.7921  12.7921
    13.2476  13.2476

          k = 0.4390 0.4224-0.1688 (  5574 PWs)   bands (ev):

   -11.1633 -11.1633 -10.9940 -10.9940 -10.0750 -10.0750  -9.8861  -9.8861
    -9.3677  -9.3677  -9.3071  -9.3071   0.3043   0.3043   0.3939   0.3939
     0.7894   0.7894   1.1594   1.1594   2.1402   2.1402   2.2642   2.2642
     2.9274   2.9274   3.2473   3.2473   3.4365   3.4365   3.7161   3.7161
     4.0811   4.0811   4.3934   4.3934   4.8219   4.8219   4.8515   4.8515
     5.4016   5.4016   5.4900   5.4900   6.1815   6.1815   6.4519   6.4519
     8.1343   8.1343   8.4103   8.4103  11.5049  11.5049  12.0114  12.0114
    13.3375  13.3375

          k = 0.0000 0.3379 0.1688 (  5578 PWs)   bands (ev):

   -11.5684 -11.5684 -10.6893 -10.6893 -10.0572 -10.0572  -9.8063  -9.8063
    -9.4708  -9.4708  -9.0818  -9.0818   0.2699   0.2699   0.3128   0.3128
     0.7325   0.7325   1.4383   1.4383   2.1473   2.1473   2.2906   2.2906
     2.6262   2.6262   3.0176   3.0176   3.1486   3.1486   3.5831   3.5831
     3.8969   3.8969   4.4927   4.4927   4.8208   4.8208   4.9014   4.9014
     5.4863   5.4863   5.7926   5.7926   6.3275   6.3275   6.6462   6.6462
     7.7598   7.7598   8.5378   8.5378  11.6322  11.6322  12.3352  12.3352
    13.4713  13.4713

          k = 0.4390 0.5914-0.0844 (  5578 PWs)   bands (ev):

   -11.0332 -11.0332 -10.7407 -10.7407 -10.3339 -10.3339  -9.8558  -9.8558
    -9.5655  -9.5655  -9.3837  -9.3837  -0.0467  -0.0467   0.6218   0.6218
     1.2180   1.2180   1.2385   1.2385   2.0279   2.0279   2.2968   2.2968
     2.8704   2.8704   3.1669   3.1669   3.4982   3.4982   3.7895   3.7895
     4.1206   4.1206   4.4701   4.4701   4.7366   4.7366   5.2010   5.2010
     5.4450   5.4450   5.5134   5.5134   5.7012   5.7012   6.5188   6.5188
     8.1976   8.1976   8.4270   8.4270  11.0815  11.0815  12.1459  12.1459
    13.2232  13.2232

          k = 0.4390-0.2534-0.5063 (  5552 PWs)   bands (ev):

   -10.8896 -10.8896 -10.5641 -10.5641 -10.5434 -10.5434  -9.8996  -9.8996
    -9.6399  -9.6399  -9.4349  -9.4349  -0.1775  -0.1775   0.9523   0.9523
     1.1870   1.1870   1.5078   1.5078   1.5591   1.5591   2.1508   2.1508
     3.1663   3.1663   3.2673   3.2673   3.6127   3.6127   4.0188   4.0188
     4.0644   4.0644   4.3284   4.3284   4.6377   4.6377   5.2425   5.2425
     5.2991   5.2991   5.4960   5.4960   5.6744   5.6744   6.5395   6.5395
     8.2924   8.2924   8.4401   8.4401  10.8228  10.8228  12.1625  12.1625
    13.3065  13.3065

          k = 0.1463 0.0845 0.1688 (  5587 PWs)   bands (ev):

   -11.7900 -11.7900 -10.2903 -10.2903 -10.1346 -10.1346  -9.7453  -9.7453
    -9.6365  -9.6365  -9.0093  -9.0093  -0.2408  -0.2408   0.7750   0.7750
     0.9985   0.9985   1.6773   1.6773   1.9089   1.9089   2.0259   2.0259
     2.3406   2.3406   2.6743   2.6743   3.2054   3.2054   3.5457   3.5457
     4.0663   4.0663   4.3461   4.3461   4.6741   4.6741   5.3023   5.3023
     5.7897   5.7897   6.1007   6.1007   6.3235   6.3235   6.5227   6.5227
     7.1541   7.1541   8.7683   8.7683  11.9902  11.9902  12.8523  12.8523
    13.2856  13.2856

          k = 0.5853 0.3379-0.0844 (  5608 PWs)   bands (ev):

   -11.1958 -11.1958 -10.8662 -10.8662 -10.0756 -10.0756  -9.8251  -9.8251
    -9.4555  -9.4555  -9.4132  -9.4132  -0.0437  -0.0437   0.1312   0.1312
     1.0585   1.0585   1.8939   1.8939   1.8998   1.8998   2.3537   2.3537
     2.6703   2.6703   3.5791   3.5791   3.6586   3.6586   3.6657   3.6657
     4.0119   4.0119   4.2345   4.2345   4.7774   4.7774   4.8495   4.8495
     5.4057   5.4057   5.5534   5.5534   6.1403   6.1403   6.2777   6.2777
     7.9893   7.9893   8.5677   8.5677  11.5108  11.5108  12.3160  12.3160
    13.1171  13.1171

          k = 0.1463 0.2534 0.2532 (  5585 PWs)   bands (ev):

   -11.5467 -11.5467 -10.5643 -10.5643 -10.0332 -10.0332  -9.8900  -9.8900
    -9.5368  -9.5368  -9.1547  -9.1547  -0.1502  -0.1502   0.6885   0.6885
     0.7106   0.7106   1.7444   1.7444   2.1930   2.1930   2.5087   2.5087
     2.6248   2.6248   2.7148   2.7148   3.1290   3.1290   3.2421   3.2421
     4.0981   4.0981   4.6145   4.6145   4.8047   4.8047   4.9799   4.9799
     5.6515   5.6515   5.7940   5.7940   6.2033   6.2033   6.5465   6.5465
     7.6742   7.6742   8.6036   8.6036  11.5412  11.5412  12.5187  12.5187
    13.4481  13.4481

          k = 0.5853 0.5069 0.0000 (  5594 PWs)   bands (ev):

   -11.0746 -11.0746 -10.6437 -10.6437 -10.2193 -10.2193  -9.8085  -9.8085
    -9.6838  -9.6838  -9.5072  -9.5072  -0.3477  -0.3477   0.1973   0.1973
     1.3496   1.3496   1.8638   1.8638   2.2300   2.2300   2.4426   2.4426
     2.6518   2.6518   3.4808   3.4808   3.6436   3.6436   3.6837   3.6837
     4.1782   4.1782   4.5068   4.5068   4.6122   4.6122   5.0950   5.0950
     5.3530   5.3530   5.3995   5.3995   5.6301   5.6301   6.3287   6.3287
     8.0935   8.0935   8.6236   8.6236  11.3234  11.3234  12.2509  12.2509
    13.2811  13.2811

          k = 0.5853-0.3379-0.4219 (  5628 PWs)   bands (ev):

   -10.8565 -10.8565 -10.5056 -10.5056 -10.4467 -10.4467  -9.9842  -9.9842
    -9.7050  -9.7050  -9.5070  -9.5070  -0.3481  -0.3481   0.3601   0.3601
     1.3461   1.3461   1.8488   1.8488   2.1500   2.1500   2.3278   2.3278
     2.7984   2.7984   3.4561   3.4561   3.7039   3.7039   4.0160   4.0160
     4.0698   4.0698   4.4188   4.4188   4.6598   4.6598   5.2347   5.2347
     5.2484   5.2484   5.3410   5.3410   5.5017   5.5017   6.3203   6.3203
     8.2875   8.2875   8.5459   8.5459  11.0838  11.0838  12.0255  12.0255
    13.6090  13.6090

          k = 0.1463-0.4224-0.0844 (  5585 PWs)   bands (ev):

   -11.4131 -11.4131 -10.7240 -10.7240 -10.2202 -10.2202  -9.7491  -9.7491
    -9.5109  -9.5109  -9.1260  -9.1260   0.2142   0.2142   0.5397   0.5397
     1.0535   1.0535   1.1738   1.1738   1.6826   1.6826   2.4602   2.4602
     2.7750   2.7750   2.8911   2.8911   3.3525   3.3525   3.7302   3.7302
     4.1020   4.1020   4.5025   4.5025   4.7904   4.7904   4.8123   4.8123
     5.3982   5.3982   5.7316   5.7316   6.2273   6.2273   6.5493   6.5493
     8.1276   8.1276   8.3710   8.3710  11.6439  11.6439  11.9701  11.9701
    12.9271  12.9271

          k = 0.5853-0.1690-0.3375 (  5594 PWs)   bands (ev):

   -10.8541 -10.8541 -10.7023 -10.7023 -10.3737 -10.3737 -10.0506 -10.0506
    -9.5605  -9.5605  -9.4273  -9.4273  -0.0510  -0.0510   0.4119   0.4119
     1.3471   1.3471   1.5620   1.5620   1.8580   1.8580   2.2930   2.2930
     2.9546   2.9546   3.1304   3.1304   3.6028   3.6028   3.9058   3.9058
     4.2410   4.2410   4.4639   4.4639   4.7284   4.7284   5.2311   5.2311
     5.2710   5.2710   5.4685   5.4685   5.7303   5.7303   6.2969   6.2969
     8.3325   8.3325   8.3984   8.3984  11.2004  11.2004  11.8128  11.8128
    13.4297  13.4297

          k = 0.1463-0.2534-0.0000 (  5587 PWs)   bands (ev):

   -11.7174 -11.7174 -10.3855 -10.3855 -10.2554 -10.2554  -9.6654  -9.6654
    -9.6220  -9.6220  -8.9782  -8.9782   0.2140   0.2140   0.2854   0.2854
     1.2884   1.2884   1.3500   1.3500   1.8495   1.8495   2.2654   2.2654
     2.4386   2.4386   2.9718   2.9718   3.0458   3.0458   3.2957   3.2957
     3.9228   3.9228   4.1724   4.1724   4.8868   4.8868   5.2804   5.2804
     5.5206   5.5206   6.2085   6.2085   6.3242   6.3242   6.7221   6.7221
     7.4615   7.4615   8.5870   8.5870  11.8749  11.8749  12.4554  12.4554
    12.8638  12.8638

          k = 0.5853-0.0000-0.2532 (  5608 PWs)   bands (ev):

   -10.9823 -10.9823 -10.9823 -10.9823 -10.0825 -10.0825 -10.0825 -10.0825
    -9.3666  -9.3666  -9.3666  -9.3666   0.4474   0.4474   0.4474   0.4474
     0.9280   0.9280   0.9280   0.9280   2.3898   2.3898   2.3898   2.3898
     2.7414   2.7414   2.7414   2.7414   3.7110   3.7110   3.7110   3.7110
     4.2674   4.2674   4.2674   4.2674   5.0373   5.0373   5.0373   5.0373
     5.3548   5.3548   5.3548   5.3548   6.2365   6.2365   6.2365   6.2365
     8.3040   8.3040   8.3040   8.3040  11.5928  11.5928  11.5928  11.5928
    13.3401  13.3401

          k = 0.2927 0.1690 0.3375 (  5584 PWs)   bands (ev):

   -11.3529 -11.3529 -10.4981 -10.4981 -10.0843 -10.0843 -10.0286 -10.0286
    -9.5945  -9.5945  -9.2870  -9.2870  -0.2802  -0.2802   0.8128   0.8128
     0.9455   0.9455   1.8210   1.8210   2.0626   2.0626   2.4234   2.4234
     2.5441   2.5441   2.9297   2.9297   3.0753   3.0753   3.8323   3.8323
     3.9900   3.9900   4.3656   4.3656   4.9397   4.9397   5.1824   5.1824
     5.5709   5.5709   5.7297   5.7297   5.8029   5.8029   6.5559   6.5559
     7.9550   7.9550   8.5455   8.5455  11.1981  11.1981  12.4143  12.4143
    13.4806  13.4806

          k = 0.7316 0.4224 0.0844 (  5614 PWs)   bands (ev):

   -10.9661 -10.9661 -10.4433 -10.4433 -10.1243 -10.1243  -9.9248  -9.9248
    -9.8564  -9.8564  -9.7004  -9.7004  -0.6211  -0.6211  -0.1160  -0.1160
     1.8332   1.8332   1.9316   1.9316   2.4822   2.4822   2.5728   2.5728
     3.1344   3.1344   3.3909   3.3909   3.7260   3.7260   3.8724   3.8724
     4.3012   4.3012   4.4760   4.4760   4.5487   4.5487   4.9721   4.9721
     5.0490   5.0490   5.2279   5.2279   5.4222   5.4222   6.0146   6.0146
     8.2581   8.2581   8.7767   8.7767  11.4911  11.4911  12.0644  12.0644
    13.7225  13.7225

          k = 0.7316-0.4224-0.3375 (  5604 PWs)   bands (ev):

   -10.7330 -10.7330 -10.3093 -10.3093 -10.2436 -10.2436 -10.2228 -10.2228
    -9.8381  -9.8381  -9.7222  -9.7222  -0.5928  -0.5928  -0.2624  -0.2624
     1.8325   1.8325   2.4379   2.4379   2.5553   2.5553   2.6331   2.6331
     2.9292   2.9292   3.0722   3.0722   4.0596   4.0596   4.0790   4.0790
     4.2081   4.2081   4.5024   4.5024   4.7415   4.7415   4.7874   4.7874
     4.9201   4.9201   5.1881   5.1881   5.3356   5.3356   5.8367   5.8367
     8.4729   8.4729   8.7187   8.7187  11.4682  11.4682  11.8290  11.8290
    14.1586  14.1586

          k = 0.2927-0.5069-0.0000 (  5584 PWs)   bands (ev):

   -11.1124 -11.1124 -10.7302 -10.7302 -10.4485 -10.4485  -9.6509  -9.6509
    -9.6489  -9.6489  -9.2713  -9.2713   0.3956   0.3956   0.4593   0.4593
     0.7250   0.7250   1.5218   1.5218   1.7101   1.7101   2.3977   2.3977
     2.9017   2.9017   2.9886   2.9886   3.5055   3.5055   3.7284   3.7284
     4.4416   4.4416   4.5295   4.5295   4.6481   4.6481   4.9214   4.9214
     5.4843   5.4843   5.6033   5.6033   5.7701   5.7701   6.5148   6.5148
     8.2734   8.2734   8.3143   8.3143  11.4036  11.4036  11.9219  11.9219
    12.8252  12.8252

          k = 0.7316-0.2534-0.2532 (  5614 PWs)   bands (ev):

   -10.5755 -10.5755 -10.5755 -10.5755 -10.3222 -10.3222 -10.3222 -10.3222
    -9.6258  -9.6258  -9.6258  -9.6258  -0.2132  -0.2132  -0.2132  -0.2132
     2.0659   2.0659   2.0659   2.0659   2.1541   2.1541   2.1541   2.1541
     2.9474   2.9474   2.9474   2.9474   4.0116   4.0116   4.0116   4.0116
     4.5434   4.5434   4.5434   4.5434   4.7451   4.7451   4.7451   4.7451
     5.1428   5.1428   5.1428   5.1428   5.8013   5.8013   5.8013   5.8013
     8.4924   8.4924   8.4924   8.4924  11.5536  11.5536  11.5536  11.5536
    13.7943  13.7943

          k = 0.0000-0.0000-0.7595 (  5616 PWs)   bands (ev):

   -10.5072 -10.5072 -10.5072 -10.5072 -10.0214 -10.0214 -10.0214 -10.0214
   -10.0214 -10.0214 -10.0214 -10.0214  -0.5974  -0.5974  -0.5974  -0.5974
     2.4858   2.4858   2.4858   2.4858   2.4858   2.4858   2.4858   2.4858
     3.3000   3.3000   3.3000   3.3000   4.2461   4.2461   4.2461   4.2461
     4.2461   4.2461   4.2461   4.2461   4.3659   4.3659   4.3659   4.3659
     5.2731   5.2731   5.2731   5.2731   5.2731   5.2731   5.2731   5.2731
     8.7121   8.7121   8.7121   8.7121  11.6664  11.6664  11.6664  11.6664
    14.5861  14.5861

     the Fermi energy is     6.8336 ev

!    total energy              =    -220.71802484 Ry
     Harris-Foulkes estimate   =    -220.71802486 Ry
     estimated scf accuracy    <       0.00000003 Ry

     The total energy is the sum of the following terms:

     one-electron contribution =     -48.44320398 Ry
     hartree contribution      =      56.07707813 Ry
     xc contribution           =     -59.67822252 Ry
     ewald contribution        =    -168.67335348 Ry
     smearing contrib. (-TS)   =      -0.00032300 Ry

     convergence has been achieved in  15 iterations

     Forces acting on atoms (cartesian axes, Ry/au):

     atom    1 type  1   force =     0.00000000    0.00000000    0.15096970
     atom    2 type  1   force =     0.00000000   -0.00000000   -0.15096970
     atom    3 type  1   force =    -0.00000000    0.00000000    0.15096970
     atom    4 type  1   force =     0.00000000   -0.00000000   -0.15096970
     atom    5 type  2   force =     0.01464529   -0.00000000    0.00000000
     atom    6 type  2   force =     0.00732265    0.01268319    0.00000000
     atom    7 type  2   force =    -0.00732265    0.01268319    0.00000000
     atom    8 type  2   force =     0.00732265   -0.01268319   -0.00000000
     atom    9 type  2   force =    -0.00732265   -0.01268319   -0.00000000
     atom   10 type  2   force =    -0.01464529   -0.00000000    0.00000000

     Total force =     0.304063     Total SCF correction =     0.000030


     Computing stress (Cartesian axis) and pressure

          total   stress  (Ry/bohr**3)                   (kbar)     P= -314.95
  -0.00406383   0.00000000   0.00000000       -597.81      0.00      0.00
   0.00000000  -0.00406383  -0.00000000          0.00   -597.81     -0.00
  -0.00000000  -0.00000000   0.00170476         -0.00     -0.00    250.78


     number of scf cycles    =   3
     number of bfgs steps    =   2

     enthalpy           old  =    -219.7598474305 Ry
     enthalpy           new  =    -220.7180248426 Ry

     CASE: enthalpy          _new < enthalpy          _old


     WARNING: bfgs curvature condition failed, Theta= 0.979
     new trust radius        =       0.8000000000 bohr
     new conv_thr            =       0.0000001510 Ry

     new unit-cell volume =    526.34912 a.u.^3 (    77.99689 Ang^3 )
     density =      4.34142 g/cm^3

CELL_PARAMETERS (alat=  9.78500192)
   0.482967742  -0.278841556   0.695287274
   0.000000000   0.557683112   0.695287274
  -0.482967742  -0.278841556   0.695287274

ATOMIC_POSITIONS (crystal)
Al       0.115325760   0.115325760   0.115325760
Al       0.384674240   0.384674240   0.384674240
Al       0.615325760   0.615325760   0.615325760
Al       0.884674240   0.884674240   0.884674240
O        0.046223560   0.750000000   0.453776440
O        0.250000000   0.546223560   0.953776440
O        0.453776440   0.046223560   0.750000000
O        0.546223560   0.953776440   0.250000000
O        0.750000000   0.453776440   0.046223560
O        0.953776440   0.250000000   0.546223560



     Writing output data file pwscf.save\
     NEW-OLD atomic charge density approx. for the potential

     negative rho (up, down):  2.992E-02 0.000E+00
     extrapolated charge   32.80508, renormalised to   48.00000

     total cpu time spent up to now is     1055.6 secs

     Self-consistent Calculation

     iteration #  1     ecut=    50.00 Ry     beta= 0.70
     Davidson diagonalization with overlap
     ethr =  1.00E-06,  avg # of iterations = 11.3

     negative rho (up, down):  5.175E-03 0.000E+00

     total cpu time spent up to now is     1111.7 secs

     total energy              =    -204.14918477 Ry
     Harris-Foulkes estimate   =    -237.02499673 Ry
     estimated scf accuracy    <      15.96427544 Ry

     iteration #  2     ecut=    50.00 Ry     beta= 0.70
     Davidson diagonalization with overlap
     ethr =  1.00E-02,  avg # of iterations =  4.2

     total cpu time spent up to now is     1147.4 secs

     total energy              =    -218.00610319 Ry
     Harris-Foulkes estimate   =    -235.85912628 Ry
     estimated scf accuracy    <      48.38199113 Ry

     iteration #  3     ecut=    50.00 Ry     beta= 0.70
     Davidson diagonalization with overlap
     ethr =  1.00E-02,  avg # of iterations =  3.0

     total cpu time spent up to now is     1177.3 secs

     total energy              =    -221.49892038 Ry
     Harris-Foulkes estimate   =    -222.57580732 Ry
     estimated scf accuracy    <       4.06337114 Ry

     iteration #  4     ecut=    50.00 Ry     beta= 0.70
     Davidson diagonalization with overlap
     ethr =  8.47E-03,  avg # of iterations =  1.0

     negative rho (up, down):  6.982E-07 0.000E+00

     total cpu time spent up to now is     1196.6 secs

     total energy              =    -221.10229024 Ry
     Harris-Foulkes estimate   =    -221.65244244 Ry
     estimated scf accuracy    <       1.36769231 Ry

     iteration #  5     ecut=    50.00 Ry     beta= 0.70
     Davidson diagonalization with overlap
     ethr =  2.85E-03,  avg # of iterations =  2.0

     total cpu time spent up to now is     1220.1 secs

     total energy              =    -221.30662122 Ry
     Harris-Foulkes estimate   =    -221.31231625 Ry
     estimated scf accuracy    <       0.03911629 Ry

     iteration #  6     ecut=    50.00 Ry     beta= 0.70
     Davidson diagonalization with overlap
     ethr =  8.15E-05,  avg # of iterations =  4.5

     total cpu time spent up to now is     1242.0 secs

     total energy              =    -221.29628277 Ry
     Harris-Foulkes estimate   =    -221.30774584 Ry
     estimated scf accuracy    <       0.02322604 Ry

     iteration #  7     ecut=    50.00 Ry     beta= 0.70
     Davidson diagonalization with overlap
     ethr =  4.84E-05,  avg # of iterations =  2.1

     total cpu time spent up to now is     1267.1 secs

     total energy              =    -221.30132236 Ry
     Harris-Foulkes estimate   =    -221.30129377 Ry
     estimated scf accuracy    <       0.00007240 Ry

     iteration #  8     ecut=    50.00 Ry     beta= 0.70
     Davidson diagonalization with overlap
     ethr =  1.51E-07,  avg # of iterations =  4.9

     total cpu time spent up to now is     1295.9 secs

     total energy              =    -221.30125851 Ry
     Harris-Foulkes estimate   =    -221.30136343 Ry
     estimated scf accuracy    <       0.00024015 Ry

     iteration #  9     ecut=    50.00 Ry     beta= 0.70
     Davidson diagonalization with overlap
     ethr =  1.51E-07,  avg # of iterations =  2.0

     total cpu time spent up to now is     1320.5 secs

     total energy              =    -221.30128534 Ry
     Harris-Foulkes estimate   =    -221.30128935 Ry
     estimated scf accuracy    <       0.00000674 Ry

     iteration # 10     ecut=    50.00 Ry     beta= 0.70
     Davidson diagonalization with overlap
     ethr =  1.40E-08,  avg # of iterations =  2.0

     total cpu time spent up to now is     1346.2 secs

     total energy              =    -221.30128710 Ry
     Harris-Foulkes estimate   =    -221.30128738 Ry
     estimated scf accuracy    <       0.00000055 Ry

     iteration # 11     ecut=    50.00 Ry     beta= 0.70
     Davidson diagonalization with overlap
     ethr =  1.14E-09,  avg # of iterations =  2.0

     total cpu time spent up to now is     1368.5 secs

     End of self-consistent calculation

          k = 0.0000 0.0000 0.0000 (  5575 PWs)   bands (ev):

   -10.6618 -10.6618  -7.6647  -7.6647  -7.6647  -7.6647  -7.1867  -7.1867
    -7.1867  -7.1867  -6.5241  -6.5241   2.6367   2.6367   2.9045   2.9045
     3.1395   3.1395   3.1395   3.1395   3.4970   3.4970   3.4970   3.4970
     3.6238   3.6238   4.6301   4.6301   6.0843   6.0843   7.0019   7.0019
     7.0019   7.0019   8.2036   8.2036   8.2036   8.2036   8.8355   8.8355
     8.8355   8.8355   9.3428   9.3428   9.3428   9.3428  10.3697  10.3697
    12.6875  12.6875  15.6797  15.6797  17.3441  17.3441  19.5587  19.5587
    19.5636  19.5636

          k = 0.5176 0.2989-0.2397 (  5622 PWs)   bands (ev):

    -9.3960  -9.3960  -9.3960  -9.3960  -7.5596  -7.5596  -7.5596  -7.5596
    -6.7694  -6.7694  -6.7694  -6.7694   2.1276   2.1276   2.1276   2.1276
     3.5630   3.5630   3.5630   3.5630   4.2935   4.2935   4.2935   4.2935
     5.8727   5.8727   5.8727   5.8727   6.4592   6.4592   6.4592   6.4592
     6.8942   6.8942   6.8942   6.8942   7.6924   7.6924   7.6924   7.6924
     8.5892   8.5892   8.5892   8.5892   9.6100   9.6100   9.6100   9.6100
    14.4450  14.4450  14.4450  14.4450  18.7042  18.7042  18.7042  18.7042
    19.3165  19.3165

          k = 0.0000 0.1992 0.0799 (  5582 PWs)   bands (ev):

   -10.5082 -10.5082  -7.9519  -7.9519  -7.6796  -7.6796  -7.2393  -7.2393
    -7.1067  -7.1067  -6.5484  -6.5484   2.4184   2.4184   2.7292   2.7292
     2.9696   2.9696   3.2398   3.2398   3.3687   3.3687   3.8988   3.8988
     4.5389   4.5389   5.1339   5.1339   6.3947   6.3947   6.6460   6.6460
     6.7566   6.7566   7.7727   7.7727   8.2346   8.2346   8.2564   8.2564
     8.7845   8.7845   9.3524   9.3524   9.4398   9.4398  10.1877  10.1877
    13.2404  13.2404  15.4170  15.4170  17.7522  17.7522  19.2055  19.2055
    19.4858  19.4858

          k = 0.5176 0.4981-0.1598 (  5574 PWs)   bands (ev):

    -9.4827  -9.4827  -9.0812  -9.0812  -7.8090  -7.8090  -7.5226  -7.5226
    -6.9650  -6.9650  -6.7224  -6.7224   2.2289   2.2289   2.6060   2.6060
     3.1366   3.1366   3.4502   3.4502   4.3433   4.3433   4.9783   4.9783
     5.6633   5.6633   5.9443   5.9443   6.2322   6.2322   6.2441   6.2441
     6.4953   6.4953   7.1132   7.1132   7.8524   7.8524   8.0012   8.0012
     8.4819   8.4819   8.6687   8.6687   9.2622   9.2622   9.6364   9.6364
    14.3264  14.3264  14.5306  14.5306  18.2742  18.2742  18.4960  18.4960
    19.2358  19.2358

          k = 0.0000 0.3985 0.1598 (  5578 PWs)   bands (ev):

   -10.0657 -10.0657  -8.6226  -8.6226  -7.6621  -7.6621  -7.3925  -7.3925
    -6.9399  -6.9399  -6.6319  -6.6319   2.1178   2.1178   2.4680   2.4680
     3.1471   3.1471   3.2764   3.2764   3.7732   3.7732   4.9243   4.9243
     5.5348   5.5348   5.7273   5.7273   6.1370   6.1370   6.3228   6.3228
     6.8543   6.8543   7.1798   7.1798   7.4857   7.4857   8.1358   8.1358
     8.6280   8.6280   9.0894   9.0894   9.4167   9.4167   9.8938   9.8938
    14.0334  14.0334  14.8717  14.8717  18.4667  18.4667  18.6432  18.6432
    19.5966  19.5966

          k = 0.5176 0.6973-0.0799 (  5578 PWs)   bands (ev):

    -9.3307  -9.3307  -8.6266  -8.6266  -8.2842  -8.2842  -7.5558  -7.5558
    -7.2056  -7.2056  -6.8381  -6.8381   2.5737   2.5737   2.7412   2.7412
     3.3707   3.3707   3.5992   3.5992   4.8321   4.8321   4.9509   4.9509
     5.4940   5.4940   5.6282   5.6282   5.9839   5.9839   6.3085   6.3085
     6.5141   6.5141   7.3341   7.3341   7.6306   7.6306   8.1470   8.1470
     8.2577   8.2577   8.3847   8.3847   9.0961   9.0961   9.6397   9.6397
    14.4219  14.4219  14.5218  14.5218  17.8779  17.8779  18.3768  18.3768
    19.5507  19.5507

          k = 0.5176-0.2989-0.4794 (  5552 PWs)   bands (ev):

    -9.1081  -9.1081  -8.6460  -8.6460  -8.3159  -8.3159  -7.6607  -7.6607
    -7.3005  -7.3005  -6.9356  -6.9356   2.3898   2.3898   3.0639   3.0639
     3.7077   3.7077   4.1079   4.1079   4.1387   4.1387   5.2572   5.2572
     5.3806   5.3806   5.7876   5.7876   5.9086   5.9086   6.4044   6.4044
     6.7070   6.7070   6.9472   6.9472   7.7725   7.7725   7.7946   7.7946
     7.8999   7.8999   8.3941   8.3941   9.1801   9.1801   9.6614   9.6614
    14.4995  14.4995  14.5538  14.5538  18.0854  18.0854  18.1982  18.1982
    19.5944  19.5944

          k = 0.1725 0.0996 0.1598 (  5587 PWs)   bands (ev):

   -10.4414 -10.4414  -7.8806  -7.8806  -7.7055  -7.7055  -7.3107  -7.3107
    -7.1302  -7.1302  -6.6751  -6.6751   2.3424   2.3424   2.7950   2.7950
     2.8118   2.8118   3.4955   3.4955   3.8032   3.8032   3.9515   3.9515
     4.5667   4.5667   4.8581   4.8581   6.5172   6.5172   6.7092   6.7092
     6.9726   6.9726   7.7186   7.7186   7.8446   7.8446   8.2233   8.2233
     8.6764   8.6764   9.3296   9.3296   9.4822   9.4822  10.0044  10.0044
[...]
     Davidson diagonalization with overlap
     ethr =  6.74E-07,  avg # of iterations =  2.2

     total cpu time spent up to now is     3828.4 secs

     total energy              =    -221.75056750 Ry
     Harris-Foulkes estimate   =    -221.75059366 Ry
     estimated scf accuracy    <       0.00006087 Ry

     iteration #  6     ecut=    50.00 Ry     beta= 0.70
     Davidson diagonalization with overlap
     ethr =  1.27E-07,  avg # of iterations =  2.0

     total cpu time spent up to now is     3850.8 secs

     total energy              =    -221.75057389 Ry
     Harris-Foulkes estimate   =    -221.75057533 Ry
     estimated scf accuracy    <       0.00000390 Ry

     iteration #  7     ecut=    50.00 Ry     beta= 0.70
     Davidson diagonalization with overlap
     ethr =  8.12E-09,  avg # of iterations =  1.0

     total cpu time spent up to now is     3868.3 secs

     total energy              =    -221.75057377 Ry
     Harris-Foulkes estimate   =    -221.75057414 Ry
     estimated scf accuracy    <       0.00000061 Ry

     iteration #  8     ecut=    50.00 Ry     beta= 0.70
     Davidson diagonalization with overlap
     ethr =  1.27E-09,  avg # of iterations =  2.0

     total cpu time spent up to now is     3894.3 secs

     total energy              =    -221.75057389 Ry
     Harris-Foulkes estimate   =    -221.75057390 Ry
     estimated scf accuracy    <       0.00000001 Ry

     iteration #  9     ecut=    50.00 Ry     beta= 0.70
     Davidson diagonalization with overlap
     ethr =  2.73E-11,  avg # of iterations =  1.9

     total cpu time spent up to now is     3912.5 secs

     End of self-consistent calculation

          k = 0.0000 0.0000 0.0000 (  3329 PWs)   bands (ev):

   -11.5296 -11.5296  -8.8572  -8.8572  -8.6772  -8.6772  -8.6772  -8.6772
    -8.2747  -8.2747  -8.2747  -8.2747   0.6852   0.6852   1.5394   1.5394
     1.9264   1.9264   1.9264   1.9264   3.0980   3.0980   3.1256   3.1256
     3.1256   3.1256   4.1770   4.1770   4.7202   4.7202   6.4001   6.4001
     6.4001   6.4001   6.4209   6.4209   6.4209   6.4209   7.1809   7.1809
     7.1809   7.1809   7.6055   7.6055   7.6055   7.6055   7.8691   7.8691
    14.1498  14.1498  16.6516  16.6516  18.4984  18.4984  18.9919  18.9919
    19.5959  19.5959

          k = 0.5442 0.3142-0.2045 (  3334 PWs)   bands (ev):

   -10.3000 -10.3000 -10.3000 -10.3000  -8.6661  -8.6661  -8.6661  -8.6661
    -8.4613  -8.4613  -8.4613  -8.4613   1.0436   1.0436   1.0436   1.0436
     2.3601   2.3601   2.3601   2.3601   4.0478   4.0478   4.0478   4.0478
     4.1362   4.1362   4.1362   4.1362   5.3991   5.3991   5.3991   5.3991
     6.0922   6.0922   6.0922   6.0922   6.4214   6.4214   6.4214   6.4214
     6.7825   6.7825   6.7825   6.7825   7.4840   7.4840   7.4840   7.4840
    17.0813  17.0813  17.0813  17.0813  17.6005  17.6005  17.6005  17.6005
    19.2276  19.2276

          k = 0.0000 0.2095 0.0682 (  3331 PWs)   bands (ev):

   -11.3780 -11.3780  -9.0211  -9.0211  -8.7036  -8.7036  -8.6969  -8.6969
    -8.3538  -8.3538  -8.2804  -8.2804   0.8319   0.8319   1.3227   1.3227
     1.7526   1.7526   2.4889   2.4889   2.5349   2.5349   3.1042   3.1042
     4.0711   4.0711   4.7449   4.7449   5.0099   5.0099   5.8714   5.8714
     6.0973   6.0973   6.4477   6.4477   6.4651   6.4651   6.7751   6.7751
     7.0236   7.0236   7.3877   7.3877   7.5837   7.5837   7.7874   7.7874
    14.7642  14.7642  17.1587  17.1587  18.1648  18.1648  18.5811  18.5811
    19.3007  19.3007

          k = 0.5442 0.5237-0.1363 (  3337 PWs)   bands (ev):

   -10.4413 -10.4413  -9.9678  -9.9678  -8.8840  -8.8840  -8.7480  -8.7480
    -8.6163  -8.6163  -8.2690  -8.2690   1.2326   1.2326   1.4046   1.4046
     2.1408   2.1408   2.5388   2.5388   3.5221   3.5221   3.7892   3.7892
     4.2343   4.2343   4.4259   4.4259   5.2438   5.2438   5.6147   5.6147
     5.7310   5.7310   6.3139   6.3139   6.3993   6.3993   6.4180   6.4180
     6.8563   6.8563   6.8827   6.8827   7.3342   7.3342   7.4600   7.4600
    16.8353  16.8353  17.2837  17.2837  17.7106  17.7106  17.8539  17.8539
    18.3785  18.3785

          k = 0.0000 0.4189 0.1363 (  3325 PWs)   bands (ev):

   -10.9445 -10.9445  -9.5839  -9.5839  -8.7240  -8.7240  -8.6052  -8.6052
    -8.5214  -8.5214  -8.3370  -8.3370   0.9383   0.9383   1.3556   1.3556
     1.6970   1.6970   2.4003   2.4003   3.1834   3.1834   3.7390   3.7390
     4.6824   4.6824   5.1595   5.1595   5.2658   5.2658   5.4455   5.4455
     5.8370   5.8370   5.8516   5.8516   6.2092   6.2092   6.4721   6.4721
     6.8501   6.8501   7.1955   7.1955   7.4766   7.4766   7.6177   7.6177
    16.0395  16.0395  17.6261  17.6261  17.6723  17.6723  18.2332  18.2332
    18.6700  18.6700

          k = 0.5442 0.7331-0.0682 (  3340 PWs)   bands (ev):

   -10.3760 -10.3760  -9.5478  -9.5478  -9.2872  -9.2872  -8.9472  -8.9472
    -8.7070  -8.7070  -8.1915  -8.1915   1.5538   1.5538   1.7253   1.7253
     2.2945   2.2945   2.8427   2.8427   3.3543   3.3543   3.5149   3.5149
     4.1826   4.1826   4.4635   4.4635   5.0483   5.0483   5.3044   5.3044
     5.9498   5.9498   6.1483   6.1483   6.3717   6.3717   6.4757   6.4757
     6.6140   6.6140   7.0066   7.0066   7.1078   7.1078   7.4426   7.4426
    17.0090  17.0090  17.2941  17.2941  17.7755  17.7755  17.9545  17.9545
    18.4740  18.4740

          k = 0.5442-0.3142-0.4090 (  3326 PWs)   bands (ev):

   -10.2613 -10.2613  -9.5420  -9.5420  -9.2528  -9.2528  -9.1142  -9.1142
    -8.7476  -8.7476  -8.1986  -8.1986   1.3944   1.3944   1.8543   1.8543
     2.8603   2.8603   3.0555   3.0555   3.2646   3.2646   3.6770   3.6770
     3.8737   3.8737   4.4099   4.4099   5.0352   5.0352   5.2047   5.2047
     5.8803   5.8803   6.0309   6.0309   6.3139   6.3139   6.4871   6.4871
     6.6324   6.6324   6.7269   6.7269   7.0507   7.0507   7.5037   7.5037
    16.9677  16.9677  17.5697  17.5697  17.7140  17.7140  18.1793  18.1793
    18.8361  18.8361

          k = 0.1814 0.1047 0.1363 (  3334 PWs)   bands (ev):

   -11.3342 -11.3342  -8.9891  -8.9891  -8.8133  -8.8133  -8.6683  -8.6683
    -8.4314  -8.4314  -8.2518  -8.2518   0.9800   0.9800   1.2980   1.2980
     1.8831   1.8831   2.4879   2.4879   2.6539   2.6539   3.0371   3.0371
     4.0086   4.0086   4.7727   4.7727   5.1551   5.1551   5.6229   5.6229
     6.2270   6.2270   6.2474   6.2474   6.3516   6.3516   6.9765   6.9765
     6.9806   6.9806   7.2105   7.2105   7.6339   7.6339   7.6737   7.6737
    14.8991  14.8991  17.1806  17.1806  18.1410  18.1410  18.5381  18.5381
    19.3043  19.3043

          k = 0.7256 0.4189-0.0682 (  3337 PWs)   bands (ev):

   -10.6629 -10.6629  -9.7568  -9.7568  -8.9862  -8.9862  -8.7369  -8.7369
    -8.5138  -8.5138  -8.2089  -8.2089   1.1902   1.1902   1.3785   1.3785
     2.1325   2.1325   2.7994   2.7994   3.4102   3.4102   3.5742   3.5742
     4.3969   4.3969   4.9067   4.9067   5.0381   5.0381   5.3323   5.3323
     5.7584   5.7584   6.0402   6.0402   6.2642   6.2642   6.4400   6.4400
     6.8214   6.8214   7.0075   7.0075   7.2009   7.2009   7.4160   7.4160
    16.5520  16.5520  17.4575  17.4575  18.1769  18.1769  18.2207  18.2207
    18.6906  18.6906

          k = 0.1814 0.3142 0.2045 (  3331 PWs)   bands (ev):

   -11.0036 -11.0036  -9.3311  -9.3311  -8.8402  -8.8402  -8.6714  -8.6714
    -8.6556  -8.6556  -8.2319  -8.2319   1.2173   1.2173   1.4219   1.4219
     1.7065   1.7065   2.5386   2.5386   2.9826   2.9826   3.5279   3.5279
     4.6101   4.6101   4.8752   4.8752   5.2786   5.2786   5.6237   5.6237
     5.7734   5.7734   5.8198   5.8198   6.3282   6.3282   6.4812   6.4812
     6.9447   6.9447   7.0508   7.0508   7.4901   7.4901   7.5496   7.5496
    15.8491  15.8491  17.8512  17.8512  17.9619  17.9619  18.0697  18.0697
    18.5567  18.5567

          k = 0.7256 0.6284 0.0000 (  3320 PWs)   bands (ev):

   -10.6456 -10.6456  -9.5823  -9.5823  -9.1023  -9.1023  -8.9172  -8.9172
    -8.4884  -8.4884  -8.1949  -8.1949   1.4896   1.4896   1.7822   1.7822
     1.9843   1.9843   2.9893   2.9893   3.3011   3.3011   3.6728   3.6728
     4.1520   4.1520   4.5505   4.5505   4.9898   4.9898   5.3764   5.3764
     5.6887   5.6887   5.9972   5.9972   6.2258   6.2258   6.5199   6.5199
     6.5886   6.5886   7.1117   7.1117   7.1747   7.1747   7.2641   7.2641
    16.5481  16.5481  17.7708  17.7708  18.0201  18.0201  18.6494  18.6494
    18.7926  18.7926

          k = 0.7256-0.4189-0.3408 (  3334 PWs)   bands (ev):

   -10.4050 -10.4050  -9.6033  -9.6033  -9.2722  -9.2722  -9.0261  -9.0261
    -8.5325  -8.5325  -8.2056  -8.2056   1.4456   1.4456   1.9568   1.9568
     2.4111   2.4111   3.0130   3.0130   3.3749   3.3749   4.0635   4.0635
     4.0942   4.0942   4.1522   4.1522   4.7912   4.7912   5.2264   5.2264
     5.9509   5.9509   5.9707   5.9707   6.1020   6.1020   6.4227   6.4227
     6.6069   6.6069   6.9993   6.9993   7.0193   7.0193   7.2746   7.2746
    17.0909  17.0909  17.5163  17.5163  18.2142  18.2142  18.3511  18.3511
    18.6397  18.6397

          k = 0.1814-0.5237-0.0682 (  3333 PWs)   bands (ev):

   -10.6261 -10.6261  -9.7718  -9.7718  -8.9863  -8.9863  -8.6002  -8.6002
    -8.5000  -8.5000  -8.3925  -8.3925   1.1208   1.1208   1.5121   1.5121
     1.8884   1.8884   2.4454   2.4454   3.3891   3.3891   3.4900   3.4900
     4.6394   4.6394   4.7913   4.7913   5.2689   5.2689   5.6621   5.6621
     5.9740   5.9740   6.0339   6.0339   6.1573   6.1573   6.3910   6.3910
     6.7510   6.7510   7.1288   7.1288   7.4637   7.4637   7.5222   7.5222
    16.6592  16.6592  17.1906  17.1906  17.5082  17.5082  17.9520  17.9520
    18.3500  18.3500

          k = 0.7256-0.2095-0.2727 (  3344 PWs)   bands (ev):

   -10.1063 -10.1063  -9.6875  -9.6875  -9.4342  -9.4342  -9.1879  -9.1879
    -8.4612  -8.4612  -8.2247  -8.2247   1.5763   1.5763   1.8718   1.8718
     2.5727   2.5727   2.7695   2.7695   3.4418   3.4418   3.5076   3.5076
     4.0515   4.0515   4.2563   4.2563   5.2373   5.2373   5.3347   5.3347
     5.7527   5.7527   6.0748   6.0748   6.4259   6.4259   6.4534   6.4534
     6.7658   6.7658   6.9204   6.9204   6.9528   6.9528   7.3404   7.3404
    17.3051  17.3051  17.4982  17.4982  17.7629  17.7629  17.8385  17.8385
    18.2297  18.2297

          k = 0.1814-0.3142-0.0000 (  3332 PWs)   bands (ev):

   -11.1287 -11.1287  -9.2367  -9.2367  -8.9004  -8.9004  -8.5576  -8.5576
    -8.4185  -8.4185  -8.3883  -8.3883   1.0113   1.0113   1.2653   1.2653
     1.6956   1.6956   2.3554   2.3554   2.9395   2.9395   3.2026   3.2026
     4.9519   4.9519   5.2199   5.2199   5.3668   5.3668   5.4796   5.4796
     5.8466   5.8466   6.1153   6.1153   6.1392   6.1392   6.3565   6.3565
     6.8924   6.8924   7.2461   7.2461   7.6206   7.6206   7.6964   7.6964
    15.5654  15.5654  17.6691  17.6691  17.8305  17.8305  18.1847  18.1847
    18.3062  18.3062

          k = 0.7256-0.0000-0.2045 (  3346 PWs)   bands (ev):

   -10.0455 -10.0455 -10.0455 -10.0455  -9.1163  -9.1163  -9.1163  -9.1163
    -8.3625  -8.3625  -8.3625  -8.3625   1.6965   1.6965   1.6965   1.6965
     2.3001   2.3001   2.3001   2.3001   3.5830   3.5830   3.5830   3.5830
     3.9781   3.9781   3.9781   3.9781   5.5793   5.5793   5.5793   5.5793
     6.0864   6.0864   6.0864   6.0864   6.3999   6.3999   6.3999   6.3999
     6.8903   6.8903   6.8903   6.8903   7.3487   7.3487   7.3487   7.3487
    17.1008  17.1008  17.1008  17.1008  17.7350  17.7350  17.7350  17.7350
    18.0749  18.0749

          k = 0.3628 0.2095 0.2727 (  3336 PWs)   bands (ev):

   -10.7952 -10.7952  -9.1749  -9.1749  -9.0561  -9.0561  -8.9469  -8.9469
    -8.7153  -8.7153  -8.2137  -8.2137   1.3027   1.3027   1.5727   1.5727
     2.2265   2.2265   2.7560   2.7560   2.9473   2.9473   3.5667   3.5667
     4.6259   4.6259   4.7926   4.7926   5.0790   5.0790   5.3555   5.3555
     5.8205   5.8205   5.9039   5.9039   6.3012   6.3012   6.3943   6.3943
     6.6622   6.6622   7.0747   7.0747   7.3124   7.3124   7.4509   7.4509
    16.3679  16.3679  17.5210  17.5210  17.9343  17.9343  18.5018  18.5018
    18.6581  18.6581

          k = 0.9070 0.5237 0.0682 (  3320 PWs)   bands (ev):

   -10.7042 -10.7042  -9.8680  -9.8680  -8.9294  -8.9294  -8.6753  -8.6753
    -8.4142  -8.4142  -8.2682  -8.2682   1.6915   1.6915   1.7404   1.7404
     2.3326   2.3326   2.8741   2.8741   3.3581   3.3581   3.3843   3.3843
     3.9833   3.9833   4.5697   4.5697   4.8580   4.8580   5.1851   5.1851
     5.5101   5.5101   5.9267   5.9267   6.1367   6.1367   6.4349   6.4349
     6.9357   6.9357   6.9612   6.9612   7.2449   7.2449   7.2854   7.2854
    16.2583  16.2583  17.1434  17.1434  18.4239  18.4239  18.6489  18.6489
    19.4221  19.4221

          k = 0.9070-0.5237-0.2727 (  3320 PWs)   bands (ev):

   -10.5146 -10.5146 -10.0799 -10.0799  -8.8361  -8.8361  -8.7883  -8.7883
    -8.4048  -8.4048  -8.2840  -8.2840   1.6379   1.6379   1.9737   1.9737
     2.4038   2.4038   3.1251   3.1251   3.4443   3.4443   3.5420   3.5420
     3.5875   3.5875   4.5421   4.5421   4.7652   4.7652   5.3373   5.3373
     5.4684   5.4684   5.7221   5.7221   5.9849   5.9849   6.4815   6.4815
     6.8822   6.8822   7.0918   7.0918   7.1223   7.1223   7.2097   7.2097
    16.5448  16.5448  16.9885  16.9885  18.5525  18.5525  18.7689  18.7689
    19.4380  19.4380

          k = 0.3628-0.6284-0.0000 (  3342 PWs)   bands (ev):

   -10.1151 -10.1151  -9.9490  -9.9490  -9.3344  -9.3344  -8.7912  -8.7912
    -8.6241  -8.6241  -8.2349  -8.2349   1.5138   1.5138   1.8959   1.8959
     2.3691   2.3691   2.4149   2.4149   2.9894   2.9894   3.6117   3.6117
     3.9398   3.9398   4.8287   4.8287   5.0417   5.0417   5.6502   5.6502
     5.7935   5.7935   6.1841   6.1841   6.5152   6.5152   6.6390   6.6390
     6.7008   6.7008   6.9584   6.9584   7.2228   7.2228   7.4577   7.4577
    17.0849  17.0849  17.1736  17.1736  17.3572  17.3572  17.9484  17.9484
    18.1749  18.1749

          k = 0.9070-0.3142-0.2045 (  3320 PWs)   bands (ev):

   -10.1168 -10.1168 -10.1168 -10.1168  -9.1031  -9.1031  -9.1031  -9.1031
    -8.2924  -8.2924  -8.2924  -8.2924   1.7309   1.7309   1.7309   1.7309
     2.6541   2.6541   2.6541   2.6541   3.7045   3.7045   3.7045   3.7045
     4.2557   4.2557   4.2557   4.2557   4.9590   4.9590   4.9590   4.9590
     5.6626   5.6626   5.6626   5.6626   6.5965   6.5965   6.5965   6.5965
     6.7430   6.7430   6.7430   6.7430   7.0313   7.0313   7.0313   7.0313
    17.3259  17.3259  17.3259  17.3259  18.3079  18.3079  18.3079  18.3080
    18.8138  18.8138

          k =-0.0000-0.0000-0.6135 (  3342 PWs)   bands (ev):

   -10.4085 -10.4085 -10.4085 -10.4085  -8.5063  -8.5063  -8.5063  -8.5063
    -8.5063  -8.5063  -8.5063  -8.5063   1.8447   1.8447   1.8447   1.8447
     3.1137   3.1137   3.1137   3.1137   3.1137   3.1137   3.1137   3.1137
     3.6946   3.6946   3.6946   3.6946   5.4166   5.4166   5.4166   5.4166
     5.6975   5.6975   5.6975   5.6975   5.6975   5.6975   5.6975   5.6975
     7.2470   7.2470   7.2470   7.2470   7.2470   7.2470   7.2470   7.2470
    16.3995  16.3995  16.3995  16.3995  18.6785  18.6785  18.6786  18.6786
    20.0615  20.0615

     the Fermi energy is    12.2998 ev

!    total energy              =    -221.75057389 Ry
     Harris-Foulkes estimate   =    -221.75057389 Ry
     estimated scf accuracy    <          2.7E-09 Ry

     The total energy is the sum of the following terms:

     one-electron contribution =     -35.17975369 Ry
     hartree contribution      =      53.04861285 Ry
     xc contribution           =     -61.78196540 Ry
     ewald contribution        =    -177.83746765 Ry
     smearing contrib. (-TS)   =      -0.00000000 Ry

     convergence has been achieved in   9 iterations

     Forces acting on atoms (cartesian axes, Ry/au):

     atom    1 type  1   force =    -0.00000000   -0.00000000   -0.00009743
     atom    2 type  1   force =     0.00000000    0.00000000    0.00009743
     atom    3 type  1   force =    -0.00000000   -0.00000000   -0.00009743
     atom    4 type  1   force =     0.00000000    0.00000000    0.00009743
     atom    5 type  2   force =     0.00023783    0.00000000    0.00000000
     atom    6 type  2   force =     0.00011891    0.00020596    0.00000000
     atom    7 type  2   force =    -0.00011891    0.00020596    0.00000000
     atom    8 type  2   force =     0.00011891   -0.00020596   -0.00000000
     atom    9 type  2   force =    -0.00011891   -0.00020596   -0.00000000
     atom   10 type  2   force =    -0.00023783    0.00000000   -0.00000000

     Total force =     0.000614     Total SCF correction =     0.000074
     SCF correction compared to forces is large: reduce conv_thr to get better values


     Computing stress (Cartesian axis) and pressure

          total   stress  (Ry/bohr**3)                   (kbar)     P=   28.45
  -0.00000013   0.00000000   0.00000000         -0.02      0.00      0.00
  -0.00000000  -0.00000013   0.00000000         -0.00     -0.02      0.00
   0.00000000   0.00000000   0.00058049          0.00      0.00     85.39


     Writing output data file pwscf.save\

     init_run     :     87.02s CPU     42.66s WALL (       2 calls)
     electrons    :   7095.61s CPU   3251.55s WALL (      15 calls)
     update_pot   :    581.83s CPU    194.98s WALL (      13 calls)
     forces       :    436.34s CPU     95.46s WALL (      15 calls)
     stress       :   1189.33s CPU    333.08s WALL (      15 calls)

     Called by init_run:
     wfcinit      :     52.06s CPU     22.86s WALL (       2 calls)
     potinit      :     11.78s CPU      1.71s WALL (       2 calls)
     hinit0       :     22.19s CPU     17.27s WALL (       2 calls)

     Called by electrons:
     c_bands      :   6479.25s CPU   2566.91s WALL (     123 calls)
     sum_band     :    503.59s CPU    619.08s WALL (     123 calls)
     v_of_rho     :      9.55s CPU      3.38s WALL (     136 calls)
     newd         :     73.27s CPU     51.99s WALL (     136 calls)
     mix_rho      :     22.22s CPU      9.22s WALL (     123 calls)

     Called by c_bands:
     init_us_2    :     28.91s CPU     13.64s WALL (    6116 calls)
     cegterg      :   6286.75s CPU   2503.88s WALL (    2706 calls)

     Called by sum_band:
     sum_band:bec :      1.94s CPU      3.03s WALL (    2706 calls)
     addusdens    :     78.36s CPU     53.37s WALL (     123 calls)

     Called by *egterg:
     h_psi        :   5054.33s CPU   1978.06s WALL (   10884 calls)
     s_psi        :    116.27s CPU     75.04s WALL (   10884 calls)
     g_psi        :     19.05s CPU     10.49s WALL (    8134 calls)
     cdiaghg      :    147.14s CPU     55.94s WALL (   10510 calls)

     Called by h_psi:
     h_psi:pot    :   5025.64s CPU   1956.76s WALL (   10884 calls)
     h_psi:calbec :    217.80s CPU     76.19s WALL (   10884 calls)
     vloc_psi     :   4599.64s CPU   1806.20s WALL (   10884 calls)
     add_vuspsi   :    208.03s CPU     74.28s WALL (   10884 calls)

     General routines
     calbec       :    263.28s CPU    116.15s WALL (   15240 calls)
     fft          :     10.98s CPU      4.67s WALL (    2055 calls)
     ffts         :      0.62s CPU      0.48s WALL (    1036 calls)
     fftw         :   2640.61s CPU   1118.87s WALL ( 2221200 calls)
     interpolate  :      8.48s CPU      3.67s WALL (     544 calls)

     Parallel routines

     PWSCF        :      2h36m CPU      1h 5m WALL


   This run was terminated on:  20: 8:30  14Jan2023            

=------------------------------------------------------------------------------=
   JOB DONE.
=------------------------------------------------------------------------------=
