
     Program PWSCF v.6.4.1 starts on 14Jan2023 at 18:10:56 

     This program is part of the open-source Quantum ESPRESSO suite
     for quantum simulation of materials; please cite
         "P. Giannozzi et al., J. Phys.:Condens. Matter 21 395502 (2009);
         "P. Giannozzi et al., J. Phys.:Condens. Matter 29 465901 (2017);
          URL http://www.quantum-espresso.org", 
     in publications or presentations arising from this work. More details at
     http://www.quantum-espresso.org/quote

     Parallel version (MPI & OpenMP), running on       8 processor cores
     Number of MPI processes:                 1
     Threads/MPI process:                     8

     MPI processes distributed on     1 nodes
     Waiting for input...
     Reading input from standard input

     Current dimensions of program PWSCF are:
     Max number of different atomic species (ntypx) = 10
     Max number of k-points (npk) =  40000
     Max angular momentum in pseudopotentials (lmaxx) =  3
     Message from routine setup:
     At least one non s.o. pseudo

     Subspace diagonalization in iterative solution of the eigenvalue problem:
     a serial algorithm will be used


     G-vector sticks info
     --------------------
     sticks:   dense  smooth     PW     G-vecs:    dense   smooth      PW
     Sum        3425    1533    437               151107    44713    7075



     bravais-lattice index     =            5
     lattice parameter (alat)  =       9.7850  a.u.
     unit-cell volume          =     936.8774 (a.u.)^3
     number of atoms/cell      =           10
     number of atomic types    =            2
     number of electrons       =        48.00
     number of Kohn-Sham states=           58
     kinetic-energy cutoff     =      50.0000  Ry
     charge density cutoff     =     450.0000  Ry
     convergence threshold     =      1.0E-06
     mixing beta               =       0.7000
     number of iterations used =            8  plain     mixing
     Exchange-correlation      = SLA  PZ   NOGX NOGC ( 1  1  0  0 0 0)
     nstep                     =           50

     Non magnetic calculation with spin-orbit


     celldm(1)=   9.785002  celldm(2)=   0.000000  celldm(3)=   0.000000
     celldm(4)=   0.000000  celldm(5)=   0.000000  celldm(6)=   0.000000

     crystal axes: (cart. coord. in units of alat)
               a(1) = (   0.707107  -0.408248   0.577350 )  
               a(2) = (   0.000000   0.816497   0.577350 )  
               a(3) = (  -0.707107  -0.408248   0.577350 )  

     reciprocal axes: (cart. coord. in units 2 pi/alat)
               b(1) = (  0.707107 -0.408248  0.577350 )  
               b(2) = (  0.000000  0.816497  0.577350 )  
               b(3) = ( -0.707107 -0.408248  0.577350 )  


     PseudoPot. # 1 for Al read from file:
     .\al_lda_v1.uspp.F.UPF
     MD5 check sum: 51a9e5980debfdd3404790b200e14add
     Pseudo is Ultrasoft + core correction, Zval =  3.0
     Generated by new atomic code, or converted to UPF format
     Using radial grid of  893 points,  3 beta functions with: 
                l(1) =   0
                l(2) =   1
                l(3) =   2
     Q(r) pseudized with  8 coefficients,  rinner =    0.900   0.900   0.900
                                                       0.900   0.900

     PseudoPot. # 2 for O  read from file:
     .\o_lda_v1.2.uspp.F.UPF
     MD5 check sum: 194b818514d2a7dbb603bb78519a4f40
     Pseudo is Ultrasoft + core correction, Zval =  6.0
     Generated by new atomic code, or converted to UPF format
     Using radial grid of  737 points,  5 beta functions with: 
                l(1) =   0
                l(2) =   0
                l(3) =   1
                l(4) =   1
                l(5) =   2
     Q(r) pseudized with  8 coefficients,  rinner =    0.900   0.900   0.900
                                                       0.900   0.900

     atomic species   valence    mass     pseudopotential
        Al             3.00    26.98154     Al( 1.00)
        O              6.00    15.99900     O ( 1.00)

     12 Sym. Ops., with inversion, found ( 6 have fractional translation)



   Cartesian axes

     site n.     atom                  positions (alat units)
         1           Al  tau(   1) = (   0.0000000  -0.0000000   0.2561703  )
         2           Al  tau(   2) = (   0.0000000  -0.0000000   0.6098551  )
         3           Al  tau(   3) = (   0.0000000  -0.0000000   1.1221957  )
         4           Al  tau(   4) = (   0.0000000  -0.0000000   1.4758805  )
         5           O   tau(   5) = (  -0.2742160   0.4082483   0.7216878  )
         6           O   tau(   6) = (  -0.4906614  -0.0333539   1.0103630  )
         7           O   tau(   7) = (  -0.2164454  -0.4416022   0.7216878  )
         8           O   tau(   8) = (   0.2164454   0.4416022   1.0103630  )
         9           O   tau(   9) = (   0.4906614   0.0333539   0.7216878  )
        10           O   tau(  10) = (   0.2742160  -0.4082483   1.0103630  )

     number of k points=    22  gaussian smearing, width (Ry)=  0.0100
                       cart. coord. in units 2pi/alat
        k(    1) = (   0.0000000   0.0000000   0.0000000), wk =   0.0138889
        k(    2) = (   0.3535534   0.2041241  -0.2886751), wk =   0.0416667
        k(    3) = (   0.0000000   0.1360828   0.0962250), wk =   0.0555556
        k(    4) = (   0.3535534   0.3402069  -0.1924501), wk =   0.1111111
        k(    5) = (   0.0000000   0.2721655   0.1924501), wk =   0.0555556
        k(    6) = (   0.3535534   0.4762897  -0.0962250), wk =   0.1111111
        k(    7) = (   0.3535534  -0.2041241  -0.5773503), wk =   0.0416667
        k(    8) = (   0.1178511   0.0680414   0.1924501), wk =   0.0277778
        k(    9) = (   0.4714045   0.2721655  -0.0962250), wk =   0.0277778
        k(   10) = (   0.1178511   0.2041241   0.2886751), wk =   0.0555556
        k(   11) = (   0.4714045   0.4082483   0.0000000), wk =   0.0555556
        k(   12) = (   0.4714045  -0.2721655  -0.4811252), wk =   0.0555556
        k(   13) = (   0.1178511  -0.3402069  -0.0962250), wk =   0.0555556
        k(   14) = (   0.4714045  -0.1360828  -0.3849002), wk =   0.0555556
        k(   15) = (   0.1178511  -0.2041241  -0.0000000), wk =   0.0277778
        k(   16) = (   0.4714045   0.0000000  -0.2886751), wk =   0.0277778
        k(   17) = (   0.2357023   0.1360828   0.3849002), wk =   0.0277778
        k(   18) = (   0.5892557   0.3402069   0.0962250), wk =   0.0277778
        k(   19) = (   0.5892557  -0.3402069  -0.3849002), wk =   0.0555556
        k(   20) = (   0.2357023  -0.4082483  -0.0000000), wk =   0.0277778
        k(   21) = (   0.5892557  -0.2041241  -0.2886751), wk =   0.0277778
        k(   22) = (   0.0000000   0.0000000  -0.8660254), wk =   0.0138889

     Dense  grid:   151107 G-vectors     FFT dimensions: (  72,  72,  72)

     Smooth grid:    44713 G-vectors     FFT dimensions: (  48,  48,  48)

     Estimated max dynamical RAM per process >     824.71 MB

     Initial potential from superposition of free atoms

     starting charge   47.99122, renormalised to   48.00000
     Starting wfcs are   80 randomized atomic wfcs

     total cpu time spent up to now is       12.3 secs

     Self-consistent Calculation

     iteration #  1     ecut=    50.00 Ry     beta= 0.70
     Davidson diagonalization with overlap
     ethr =  1.00E-02,  avg # of iterations =  2.0

     total cpu time spent up to now is       30.6 secs

     total energy              =    -217.33337857 Ry
     Harris-Foulkes estimate   =    -219.24885448 Ry
     estimated scf accuracy    <       2.47258210 Ry

     iteration #  2     ecut=    50.00 Ry     beta= 0.70
     Davidson diagonalization with overlap
     ethr =  5.15E-03,  avg # of iterations =  4.0

     total cpu time spent up to now is       57.7 secs

     total energy              =    -216.66704746 Ry
     Harris-Foulkes estimate   =    -221.50803810 Ry
     estimated scf accuracy    <      15.68884350 Ry

     iteration #  3     ecut=    50.00 Ry     beta= 0.70
     Davidson diagonalization with overlap
     ethr =  5.15E-03,  avg # of iterations =  3.0

     total cpu time spent up to now is       83.6 secs

     total energy              =    -218.77671939 Ry
     Harris-Foulkes estimate   =    -218.78818128 Ry
     estimated scf accuracy    <       0.02806749 Ry

     iteration #  4     ecut=    50.00 Ry     beta= 0.70
     Davidson diagonalization with overlap
     ethr =  5.85E-05,  avg # of iterations =  2.3

     total cpu time spent up to now is      106.1 secs

     total energy              =    -218.78176015 Ry
     Harris-Foulkes estimate   =    -218.78255066 Ry
     estimated scf accuracy    <       0.00256258 Ry

     iteration #  5     ecut=    50.00 Ry     beta= 0.70
     Davidson diagonalization with overlap
     ethr =  5.34E-06,  avg # of iterations =  3.2

     total cpu time spent up to now is      126.1 secs

     total energy              =    -218.78214291 Ry
     Harris-Foulkes estimate   =    -218.78231732 Ry
     estimated scf accuracy    <       0.00047631 Ry

     iteration #  6     ecut=    50.00 Ry     beta= 0.70
     Davidson diagonalization with overlap
     ethr =  9.92E-07,  avg # of iterations =  1.4

     total cpu time spent up to now is      143.5 secs

     total energy              =    -218.78220197 Ry
     Harris-Foulkes estimate   =    -218.78220731 Ry
     estimated scf accuracy    <       0.00001667 Ry

     iteration #  7     ecut=    50.00 Ry     beta= 0.70
     Davidson diagonalization with overlap
     ethr =  3.47E-08,  avg # of iterations =  3.0

     total cpu time spent up to now is      165.7 secs

     End of self-consistent calculation

          k = 0.0000 0.0000 0.0000 (  5575 PWs)   bands (ev):

   -13.5476 -13.5476 -12.6234 -12.6234 -12.6234 -12.6234 -12.2915 -12.2915
   -12.2915 -12.2915 -12.0059 -12.0059  -3.3239  -3.3239  -1.7991  -1.7991
    -1.1826  -1.1826  -0.1909  -0.1909  -0.1909  -0.1909  -0.1444  -0.1444
    -0.1444  -0.1444   0.5251   0.5251   0.5251   0.5251   0.9982   0.9982
     1.3360   1.3360   1.3360   1.3360   2.0219   2.0219   2.4099   2.4099
     2.4112   2.4112   2.4112   2.4112   2.9907   2.9907   2.9907   2.9907
     3.4776   3.4776   3.5611   3.5611   3.9595   3.9595   5.1115   5.1115
     7.6243   7.6243

          k = 0.3536 0.2041-0.2887 (  5622 PWs)   bands (ev):

   -13.1281 -13.1281 -13.1281 -13.1281 -12.4145 -12.4145 -12.4145 -12.4145
   -12.1730 -12.1730 -12.1730 -12.1730  -2.9540  -2.9540  -2.9540  -2.9540
    -0.8208  -0.8208  -0.8208  -0.8208   0.0919   0.0919   0.0919   0.0919
     0.5327   0.5327   0.5327   0.5327   0.9889   0.9889   0.9889   0.9889
     1.5534   1.5534   1.5534   1.5534   2.1199   2.1199   2.1199   2.1199
     2.4559   2.4559   2.4559   2.4559   3.0132   3.0132   3.0132   3.0132
     3.3315   3.3315   3.3315   3.3315   4.2122   4.2122   4.2122   4.2122
     7.6299   7.6300

          k = 0.0000 0.1361 0.0962 (  5582 PWs)   bands (ev):

   -13.4944 -13.4944 -12.7017 -12.7017 -12.5941 -12.5941 -12.2955 -12.2955
   -12.2764 -12.2764 -12.0332 -12.0332  -3.3168  -3.3168  -2.0428  -2.0428
    -1.1114  -1.1114  -0.2121  -0.2121  -0.2101  -0.2101  -0.0376  -0.0376
     0.1598   0.1598   0.4082   0.4082   0.4718   0.4718   0.7365   0.7365
     1.4600   1.4600   1.7488   1.7488   2.1829   2.1829   2.3208   2.3208
     2.3716   2.3716   2.4164   2.4164   2.8739   2.8739   2.9271   2.9271
     3.4914   3.4914   3.5101   3.5101   4.0188   4.0188   4.9112   4.9112
     7.6412   7.6412

          k = 0.3536 0.3402-0.1925 (  5574 PWs)   bands (ev):

   -13.0975 -13.0975 -13.0815 -13.0815 -12.4668 -12.4668 -12.4116 -12.4116
   -12.2313 -12.2313 -12.1542 -12.1542  -3.2950  -3.2950  -2.6427  -2.6427
    -0.9896  -0.9896  -0.5361  -0.5361  -0.2002  -0.2002   0.1319   0.1319
     0.4654   0.4654   0.6303   0.6303   0.8316   0.8316   1.2568   1.2568
     1.6554   1.6554   1.6827   1.6827   2.0151   2.0151   2.2513   2.2513
     2.4436   2.4436   2.5594   2.5594   2.9031   2.9031   3.0911   3.0911
     3.2252   3.2252   3.4382   3.4382   4.0253   4.0253   4.2651   4.2651
     7.3363   7.3363

          k = 0.0000 0.2722 0.1925 (  5578 PWs)   bands (ev):

   -13.3445 -13.3445 -12.8933 -12.8933 -12.5154 -12.5154 -12.3320 -12.3320
   -12.2346 -12.2346 -12.0995 -12.0995  -3.2219  -3.2219  -2.5221  -2.5221
    -1.0189  -1.0189  -0.4832  -0.4832   0.0731   0.0731   0.1087   0.1087
     0.3488   0.3488   0.4127   0.4127   0.6641   0.6641   0.7841   0.7841
     1.4759   1.4759   2.0225   2.0225   2.2188   2.2188   2.2272   2.2272
     2.3410   2.3410   2.4548   2.4548   2.7927   2.7927   2.9613   2.9613
     3.3052   3.3052   3.5124   3.5124   4.1001   4.1001   4.4985   4.4985
     7.5509   7.5509

          k = 0.3536 0.4763-0.0962 (  5578 PWs)   bands (ev):

   -13.0187 -13.0187 -12.9615 -12.9615 -12.5814 -12.5814 -12.4664 -12.4664
   -12.2748 -12.2748 -12.1633 -12.1633  -3.5399  -3.5399  -2.4569  -2.4569
    -1.0670  -1.0670  -0.5745  -0.5745  -0.3194  -0.3194   0.1571   0.1571
     0.5045   0.5045   0.5593   0.5593   1.1554   1.1554   1.4200   1.4200
     1.6918   1.6918   1.9121   1.9121   2.0398   2.0398   2.2531   2.2531
     2.4354   2.4354   2.7162   2.7162   2.8808   2.8808   3.0354   3.0354
     3.2284   3.2284   3.4486   3.4486   3.7118   3.7118   4.3075   4.3075
     7.1744   7.1744

          k = 0.3536-0.2041-0.5774 (  5552 PWs)   bands (ev):

   -12.9665 -12.9665 -12.8509 -12.8509 -12.6869 -12.6869 -12.5248 -12.5248
   -12.2754 -12.2754 -12.1733 -12.1733  -3.6264  -3.6264  -2.3970  -2.3970
    -1.0743  -1.0743  -0.7418  -0.7418  -0.3190  -0.3190   0.0825   0.0825
     0.6931   0.6931   0.6999   0.6999   1.3000   1.3000   1.4032   1.4032
     1.8014   1.8014   1.8670   1.8670   2.1172   2.1172   2.1473   2.1473
     2.4245   2.4245   2.8052   2.8052   2.8998   2.8998   2.9974   2.9974
     3.2545   3.2545   3.4580   3.4580   3.5138   3.5138   4.3262   4.3262
     7.1443   7.1443

          k = 0.1179 0.0680 0.1925 (  5587 PWs)   bands (ev):

   -13.4415 -13.4415 -12.7277 -12.7277 -12.6031 -12.6031 -12.3023 -12.3023
   -12.2897 -12.2897 -12.0409 -12.0409  -3.4763  -3.4763  -1.9972  -1.9972
    -0.8227  -0.8227  -0.2910  -0.2910  -0.1935  -0.1935  -0.0508  -0.0508
     0.1720   0.1720   0.4493   0.4493   0.4657   0.4657   0.5955   0.5955
     1.5203   1.5203   1.6840   1.6840   2.1854   2.1854   2.3641   2.3641
     2.3650   2.3650   2.6187   2.6187   2.8104   2.8104   3.0127   3.0127
     3.3819   3.3819   3.4273   3.4273   4.1038   4.1038   4.7136   4.7136
     7.7529   7.7529

          k = 0.4714 0.2722-0.0962 (  5608 PWs)   bands (ev):

   -13.0601 -13.0601 -13.0368 -13.0368 -12.4995 -12.4995 -12.4415 -12.4415
   -12.2685 -12.2685 -12.1454 -12.1454  -3.5615  -3.5615  -2.4521  -2.4521
    -1.0140  -1.0140  -0.2567  -0.2567  -0.0108  -0.0108   0.1819   0.1819
     0.2668   0.2668   0.6422   0.6422   0.6807   0.6807   1.2600   1.2600
     1.5546   1.5546   1.7719   1.7719   1.8272   1.8272   2.2191   2.2191
     2.6530   2.6530   2.6920   2.6920   2.8009   2.8009   3.1113   3.1113
     3.1399   3.1399   3.4363   3.4363   4.0321   4.0321   4.4427   4.4427
     7.3184   7.3184

          k = 0.1179 0.2041 0.2887 (  5585 PWs)   bands (ev):

   -13.2945 -13.2945 -12.8801 -12.8801 -12.5325 -12.5325 -12.3616 -12.3616
   -12.2699 -12.2699 -12.0904 -12.0904  -3.4903  -3.4903  -2.2824  -2.2824
    -0.7018  -0.7018  -0.5930  -0.5930  -0.1797  -0.1797   0.2110   0.2110
     0.2279   0.2279   0.5371   0.5371   0.6129   0.6129   0.7678   0.7678
     1.6283   1.6283   1.9358   1.9358   2.0776   2.0776   2.3408   2.3408
     2.4633   2.4633   2.5016   2.5016   2.9089   2.9089   2.9836   2.9836
     3.1781   3.1781   3.4722   3.4722   4.1590   4.1590   4.3301   4.3301
     7.6007   7.6007

          k = 0.4714 0.4082 0.0000 (  5594 PWs)   bands (ev):

   -12.9745 -12.9745 -12.9178 -12.9178 -12.5871 -12.5871 -12.4999 -12.4999
   -12.3131 -12.3131 -12.1815 -12.1815  -3.7068  -3.7068  -2.5316  -2.5316
    -0.8767  -0.8767  -0.3207  -0.3207  -0.1161  -0.1161   0.2282   0.2282
     0.3324   0.3324   0.6711   0.6711   0.9673   0.9673   1.5059   1.5059
     1.5606   1.5606   1.7255   1.7255   1.9948   1.9948   2.1088   2.1088
     2.5303   2.5303   2.7942   2.7942   2.8731   2.8731   3.0319   3.0319
     3.1788   3.1788   3.4003   3.4003   3.8295   3.8295   4.4766   4.4766
     7.3748   7.3748

          k = 0.4714-0.2722-0.4811 (  5628 PWs)   bands (ev):

   -12.9215 -12.9215 -12.8148 -12.8148 -12.6698 -12.6698 -12.5347 -12.5347
   -12.3212 -12.3212 -12.2250 -12.2250  -3.6593  -3.6593  -2.6994  -2.6994
    -0.7747  -0.7747  -0.5510  -0.5510  -0.2440  -0.2440   0.1044   0.1044
     0.5479   0.5479   0.8422   0.8422   1.3414   1.3414   1.3462   1.3462
     1.7967   1.7967   1.8765   1.8765   2.0063   2.0063   2.1831   2.1831
     2.3392   2.3392   2.7648   2.7648   2.8874   2.8874   2.9460   2.9460
     3.3157   3.3157   3.4485   3.4485   3.6099   3.6099   4.2622   4.2622
     7.3317   7.3317

          k = 0.1179-0.3402-0.0962 (  5585 PWs)   bands (ev):

   -13.3004 -13.3004 -12.8576 -12.8576 -12.5746 -12.5746 -12.3161 -12.3161
   -12.2263 -12.2263 -12.1580 -12.1580  -2.9273  -2.9273  -2.9100  -2.9100
    -1.2032  -1.2032  -0.3005  -0.3005  -0.1512  -0.1512   0.0960   0.0960
     0.3386   0.3386   0.5734   0.5734   0.6204   0.6204   1.1844   1.1844
     1.5380   1.5380   1.9547   1.9547   2.0989   2.0989   2.2773   2.2773
     2.4462   2.4462   2.5388   2.5388   2.7804   2.7804   3.1548   3.1548
     3.3085   3.3085   3.4820   3.4820   3.8700   3.8700   4.5157   4.5157
     7.2249   7.2249

          k = 0.4714-0.1361-0.3849 (  5594 PWs)   bands (ev):

   -12.9767 -12.9767 -12.9361 -12.9361 -12.5504 -12.5504 -12.4623 -12.4623
   -12.3143 -12.3143 -12.2383 -12.2383  -3.4182  -3.4182  -2.8581  -2.8581
    -0.7963  -0.7963  -0.5517  -0.5517  -0.3452  -0.3452  -0.0520  -0.0520
     0.6092   0.6092   0.7804   0.7804   1.2430   1.2430   1.4380   1.4380
     1.7547   1.7547   1.9473   1.9473   2.1744   2.1744   2.2453   2.2453
     2.3639   2.3639   2.5776   2.5776   2.8855   2.8855   2.9930   2.9930
     3.4145   3.4145   3.4734   3.4734   3.6388   3.6388   4.0052   4.0052
     7.2705   7.2706

          k = 0.1179-0.2041-0.0000 (  5587 PWs)   bands (ev):

   -13.4436 -13.4436 -12.6971 -12.6971 -12.6377 -12.6377 -12.2894 -12.2894
   -12.2606 -12.2606 -12.0808 -12.0808  -3.1281  -3.1281  -2.4300  -2.4300
    -1.2421  -1.2421  -0.2622  -0.2622  -0.0789  -0.0789   0.0644   0.0644
     0.2100   0.2100   0.3952   0.3952   0.4142   0.4142   0.9570   0.9570
     1.6392   1.6392   1.9609   1.9609   2.0485   2.0485   2.3274   2.3274
     2.3718   2.3718   2.4931   2.4931   2.7887   2.7887   2.9506   2.9506
     3.4502   3.4502   3.5763   3.5763   3.8993   3.8993   4.8070   4.8070
     7.2765   7.2765

          k = 0.4714 0.0000-0.2887 (  5608 PWs)   bands (ev):

   -13.0536 -13.0536 -13.0536 -13.0536 -12.4447 -12.4447 -12.4447 -12.4447
   -12.2297 -12.2297 -12.2297 -12.2297  -3.0382  -3.0382  -3.0382  -3.0382
    -0.7264  -0.7264  -0.7264  -0.7264  -0.2445  -0.2445  -0.2445  -0.2445
     0.6940   0.6940   0.6940   0.6940   1.2153   1.2153   1.2153   1.2153
     1.7467   1.7467   1.7467   1.7467   2.2603   2.2603   2.2603   2.2603
     2.3774   2.3774   2.3774   2.3774   3.0061   3.0061   3.0061   3.0061
     3.3976   3.3976   3.3976   3.3976   3.9495   3.9495   3.9495   3.9495
     7.4327   7.4327

          k = 0.2357 0.1361 0.3849 (  5584 PWs)   bands (ev):

   -13.1597 -13.1597 -12.8858 -12.8858 -12.5549 -12.5549 -12.4469 -12.4469
   -12.2837 -12.2837 -12.1215 -12.1215  -3.6135  -3.6135  -2.2858  -2.2858
    -0.7726  -0.7726  -0.5165  -0.5165  -0.4827  -0.4827   0.2176   0.2176
     0.2634   0.2634   0.6857   0.6857   0.8552   0.8552   1.1300   1.1300
     1.5455   1.5455   2.0431   2.0431   2.0709   2.0709   2.4340   2.4340
     2.4417   2.4417   2.5826   2.5826   2.9081   2.9081   3.0506   3.0506
     3.0957   3.0957   3.4497   3.4497   3.9902   3.9902   4.1955   4.1955
     7.3793   7.3793

          k = 0.5893 0.3402 0.0962 (  5614 PWs)   bands (ev):

   -12.8667 -12.8667 -12.8076 -12.8076 -12.5951 -12.5951 -12.5541 -12.5541
   -12.4063 -12.4063 -12.2638 -12.2638  -3.7848  -3.7848  -2.8828  -2.8828
    -0.4938  -0.4938  -0.0808  -0.0808   0.1236   0.1236   0.2041   0.2041
     0.3269   0.3269   0.5662   0.5662   1.0931   1.0931   1.4608   1.4608
     1.5829   1.5829   1.7360   1.7360   1.8296   1.8296   2.1897   2.1897
     2.5703   2.5703   2.7562   2.7562   2.7994   2.7994   2.9690   2.9690
     3.2776   3.2776   3.3623   3.3623   3.7858   3.7858   4.4074   4.4074
     7.7278   7.7278

          k = 0.5893-0.3402-0.3849 (  5604 PWs)   bands (ev):

   -12.7965 -12.7965 -12.7197 -12.7197 -12.6187 -12.6187 -12.5657 -12.5657
   -12.4473 -12.4473 -12.3575 -12.3575  -3.6683  -3.6683  -3.1781  -3.1781
    -0.2888  -0.2888  -0.1606  -0.1606  -0.0183  -0.0183   0.1666   0.1666
     0.4327   0.4327   0.6400   0.6400   1.4167   1.4167   1.4172   1.4172
     1.6454   1.6454   1.7323   1.7323   1.9706   1.9706   2.2738   2.2738
     2.4084   2.4084   2.7038   2.7038   2.7845   2.7845   2.8668   2.8668
     3.4363   3.4363   3.4760   3.4760   3.6502   3.6502   4.0944   4.0944
     7.7934   7.7936

          k = 0.2357-0.4082-0.0000 (  5584 PWs)   bands (ev):

   -13.1761 -13.1761 -12.8162 -12.8162 -12.6697 -12.6697 -12.3307 -12.3307
   -12.2811 -12.2811 -12.1826 -12.1826  -3.2851  -3.2851  -2.6801  -2.6801
    -1.2243  -1.2243  -0.4728  -0.4728  -0.0147  -0.0147   0.1188   0.1188
     0.2913   0.2913   0.5382   0.5382   0.8210   0.8210   1.5361   1.5361
     1.7595   1.7595   1.8103   1.8103   2.0976   2.0976   2.3349   2.3349
     2.3505   2.3505   2.6802   2.6802   2.8554   2.8554   3.1530   3.1530
     3.3142   3.3142   3.5356   3.5356   3.5557   3.5557   4.4605   4.4605
     7.1001   7.1001

          k = 0.5893-0.2041-0.2887 (  5614 PWs)   bands (ev):

   -12.8599 -12.8599 -12.8599 -12.8599 -12.5059 -12.5059 -12.5059 -12.5059
   -12.3831 -12.3831 -12.3831 -12.3831  -3.3373  -3.3373  -3.3373  -3.3373
    -0.4137  -0.4137  -0.4137  -0.4137  -0.0952  -0.0952  -0.0952  -0.0952
     0.6642   0.6642   0.6642   0.6642   1.4341   1.4341   1.4341   1.4341
     1.7759   1.7759   1.7759   1.7759   2.2152   2.2152   2.2152   2.2152
     2.4617   2.4617   2.4617   2.4617   2.8705   2.8705   2.8705   2.8705
     3.5359   3.5359   3.5359   3.5359   3.7294   3.7294   3.7294   3.7294
     7.6346   7.6346

          k = 0.0000 0.0000-0.8660 (  5616 PWs)   bands (ev):

   -12.6222 -12.6222 -12.6222 -12.6222 -12.6222 -12.6222 -12.6222 -12.6222
   -12.5128 -12.5128 -12.5128 -12.5128  -3.5230  -3.5230  -3.5230  -3.5230
     0.0608   0.0608   0.0608   0.0608   0.2536   0.2536   0.2536   0.2536
     0.2536   0.2536   0.2536   0.2536   1.5261   1.5261   1.5261   1.5261
     1.5261   1.5261   1.5261   1.5261   2.1321   2.1321   2.1321   2.1321
     2.6874   2.6874   2.6874   2.6874   2.6874   2.6874   2.6874   2.6874
     3.4954   3.4954   3.4954   3.4954   3.8275   3.8275   3.8275   3.8275
     8.2996   8.2996

     the Fermi energy is     3.1464 ev

!    total energy              =    -218.78220675 Ry
     Harris-Foulkes estimate   =    -218.78220738 Ry
     estimated scf accuracy    <       0.00000093 Ry

     The total energy is the sum of the following terms:

     one-electron contribution =     -68.70523680 Ry
     hartree contribution      =      60.46422616 Ry
     xc contribution           =     -57.95482961 Ry
     ewald contribution        =    -152.58139096 Ry
     smearing contrib. (-TS)   =      -0.00497554 Ry

     convergence has been achieved in   7 iterations

     Forces acting on atoms (cartesian axes, Ry/au):

     atom    1 type  1   force =     0.00000000    0.00000000   -0.52859050
     atom    2 type  1   force =     0.00000000    0.00000000    0.52859050
     atom    3 type  1   force =    -0.00000000   -0.00000000   -0.52859050
     atom    4 type  1   force =     0.00000000    0.00000000    0.52859050
     atom    5 type  2   force =    -0.07058496    0.00000000   -0.00000000
     atom    6 type  2   force =    -0.03529248   -0.06112837   -0.00000000
     atom    7 type  2   force =     0.03529248   -0.06112837   -0.00000000
     atom    8 type  2   force =    -0.03529248    0.06112837    0.00000000
     atom    9 type  2   force =     0.03529248    0.06112837    0.00000000
     atom   10 type  2   force =     0.07058496    0.00000000    0.00000000

     Total force =     1.071226     Total SCF correction =     0.000255

     BFGS Geometry Optimization

     number of scf cycles    =   1
     number of bfgs steps    =   0

     energy             new  =    -218.7822067520 Ry

     new trust radius        =       0.5000000000 bohr
     new conv_thr            =       0.0000010000 Ry


ATOMIC_POSITIONS (crystal)
Al       0.118398204   0.118398204   0.118398204
Al       0.381601796   0.381601796   0.381601796
Al       0.618398204   0.618398204   0.618398204
Al       0.881601796   0.881601796   0.881601796
O        0.051275115   0.750000000   0.448724885
O        0.250000000   0.551275115   0.948724885
O        0.448724885   0.051275115   0.750000000
O        0.551275115   0.948724885   0.250000000
O        0.750000000   0.448724885   0.051275115
O        0.948724885   0.250000000   0.551275115



     Writing output data file pwscf.save\
     NEW-OLD atomic charge density approx. for the potential

     negative rho (up, down):  2.837E-03 0.000E+00

     total cpu time spent up to now is      169.0 secs

     Self-consistent Calculation

     iteration #  1     ecut=    50.00 Ry     beta= 0.70
     Davidson diagonalization with overlap
     ethr =  1.00E-06,  avg # of iterations =  9.2

     negative rho (up, down):  6.094E-05 0.000E+00

     total cpu time spent up to now is      218.3 secs

     total energy              =    -219.03662005 Ry
     Harris-Foulkes estimate   =    -219.18764061 Ry
     estimated scf accuracy    <       0.23731907 Ry

     iteration #  2     ecut=    50.00 Ry     beta= 0.70
     Davidson diagonalization with overlap
     ethr =  4.94E-04,  avg # of iterations =  2.1

     negative rho (up, down):  2.414E-05 0.000E+00

     total cpu time spent up to now is      240.1 secs

     total energy              =    -218.98259228 Ry
     Harris-Foulkes estimate   =    -219.26816444 Ry
     estimated scf accuracy    <       0.81051017 Ry

     iteration #  3     ecut=    50.00 Ry     beta= 0.70
     Davidson diagonalization with overlap
     ethr =  4.94E-04,  avg # of iterations =  2.1

     negative rho (up, down):  1.822E-06 0.000E+00

     total cpu time spent up to now is      261.3 secs

     total energy              =    -219.12028190 Ry
     Harris-Foulkes estimate   =    -219.14751385 Ry
     estimated scf accuracy    <       0.08892983 Ry

     iteration #  4     ecut=    50.00 Ry     beta= 0.70
     Davidson diagonalization with overlap
     ethr =  1.85E-04,  avg # of iterations =  2.0

     negative rho (up, down):  3.507E-06 0.000E+00

     total cpu time spent up to now is      279.7 secs

     total energy              =    -219.13157120 Ry
     Harris-Foulkes estimate   =    -219.13187082 Ry
     estimated scf accuracy    <       0.00092087 Ry

     iteration #  5     ecut=    50.00 Ry     beta= 0.70
     Davidson diagonalization with overlap
     ethr =  1.92E-06,  avg # of iterations =  3.1

     negative rho (up, down):  4.203E-06 0.000E+00

     total cpu time spent up to now is      304.4 secs

     total energy              =    -219.13210245 Ry
     Harris-Foulkes estimate   =    -219.13212648 Ry
     estimated scf accuracy    <       0.00011551 Ry

     iteration #  6     ecut=    50.00 Ry     beta= 0.70
     Davidson diagonalization with overlap
     ethr =  2.41E-07,  avg # of iterations =  1.0

     negative rho (up, down):  4.345E-06 0.000E+00

     total cpu time spent up to now is      321.6 secs

     total energy              =    -219.13210640 Ry
     Harris-Foulkes estimate   =    -219.13211017 Ry
     estimated scf accuracy    <       0.00001485 Ry

     iteration #  7     ecut=    50.00 Ry     beta= 0.70
     Davidson diagonalization with overlap
     ethr =  3.09E-08,  avg # of iterations =  2.1

     negative rho (up, down):  4.367E-06 0.000E+00

     total cpu time spent up to now is      342.3 secs

     End of self-consistent calculation

          k = 0.0000 0.0000 0.0000 (  5575 PWs)   bands (ev):

   -13.5348 -13.5348 -12.6378 -12.6378 -12.6378 -12.6378 -12.2887 -12.2887
   -12.2887 -12.2887 -12.0122 -12.0122  -2.3700  -2.3700  -1.9142  -1.9142
    -1.3152  -1.3152  -0.1274  -0.1274  -0.1274  -0.1274  -0.0933  -0.0933
    -0.0933  -0.0933   0.6236   0.6236   0.7204   0.7204   0.7204   0.7204
     1.2804   1.2804   1.2804   1.2804   1.9742   1.9742   2.1304   2.1304
     2.3661   2.3661   2.3661   2.3661   2.9440   2.9440   2.9440   2.9440
     2.9641   2.9641   3.4545   3.4545   4.7035   4.7035   5.2489   5.2489
     7.8785   7.8785

          k = 0.3536 0.2041-0.2887 (  5622 PWs)   bands (ev):

   -13.1234 -13.1234 -13.1234 -13.1234 -12.4248 -12.4248 -12.4248 -12.4248
   -12.1744 -12.1744 -12.1744 -12.1744  -2.4612  -2.4612  -2.4612  -2.4612
    -0.9779  -0.9779  -0.9779  -0.9779   0.1027   0.1027   0.1027   0.1027
     0.5430   0.5430   0.5430   0.5430   1.1931   1.1931   1.1931   1.1931
     1.4318   1.4318   1.4318   1.4318   2.0669   2.0669   2.0669   2.0669
     2.3717   2.3717   2.3717   2.3717   2.8176   2.8176   2.8176   2.8176
     3.2152   3.2152   3.2152   3.2152   4.5048   4.5048   4.5048   4.5048
     7.6563   7.6563

          k = 0.0000 0.1361 0.0962 (  5582 PWs)   bands (ev):

   -13.4824 -13.4824 -12.7116 -12.7116 -12.6082 -12.6082 -12.2957 -12.2957
   -12.2741 -12.2741 -12.0394 -12.0394  -2.5590  -2.5590  -1.6133  -1.6133
    -1.5677  -1.5677  -0.2180  -0.2180  -0.1534  -0.1534  -0.1169  -0.1169
     0.2213   0.2213   0.5624   0.5624   0.5939   0.5939   0.6622   0.6622
     1.4907   1.4907   1.6623   1.6623   2.0877   2.0877   2.1021   2.1021
     2.2801   2.2801   2.3581   2.3581   2.7116   2.7116   2.8735   2.8735
     3.1733   3.1733   3.3838   3.3838   4.6828   4.6828   5.0378   5.0378
     7.8968   7.8968

          k = 0.3536 0.3402-0.1925 (  5574 PWs)   bands (ev):

   -13.0959 -13.0959 -13.0749 -13.0749 -12.4738 -12.4738 -12.4224 -12.4224
   -12.2333 -12.2333 -12.1560 -12.1560  -2.8911  -2.8911  -2.0426  -2.0426
    -1.2791  -1.2791  -0.5919  -0.5919  -0.1428  -0.1428   0.1732   0.1732
     0.5005   0.5005   0.7120   0.7120   0.8868   0.8868   1.3249   1.3249
     1.5567   1.5567   1.6901   1.6901   1.9469   1.9469   2.2452   2.2452
     2.3588   2.3588   2.4431   2.4431   2.7196   2.7196   2.9076   2.9076
     3.0809   3.0809   3.2467   3.2467   4.2906   4.2906   4.6335   4.6335
     7.3756   7.3756

          k = 0.0000 0.2722 0.1925 (  5578 PWs)   bands (ev):

   -13.3352 -13.3352 -12.8953 -12.8953 -12.5284 -12.5284 -12.3374 -12.3374
   -12.2335 -12.2335 -12.1042 -12.1042  -2.6410  -2.6410  -2.0571  -2.0571
    -1.2792  -1.2792  -0.5950  -0.5950  -0.0144  -0.0144   0.1334   0.1334
     0.5117   0.5117   0.5277   0.5277   0.5714   0.5714   0.9012   0.9012
     1.5791   1.5791   2.0025   2.0025   2.0875   2.0875   2.0971   2.0971
     2.1911   2.1911   2.4113   2.4113   2.6148   2.6148   2.8557   2.8557
     3.1928   3.1928   3.2853   3.2853   4.6023   4.6023   4.6420   4.6420
     7.6412   7.6412

          k = 0.3536 0.4763-0.0962 (  5578 PWs)   bands (ev):

   -13.0216 -13.0216 -12.9528 -12.9528 -12.5844 -12.5844 -12.4725 -12.4725
   -12.2837 -12.2837 -12.1632 -12.1632  -3.1873  -3.1873  -1.8177  -1.8177
    -1.4210  -1.4210  -0.4679  -0.4679  -0.2686  -0.2686   0.2302   0.2302
     0.5409   0.5409   0.6204   0.6204   1.1810   1.1810   1.4074   1.4074
     1.6324   1.6324   1.8760   1.8760   2.0182   2.0182   2.2226   2.2226
     2.4405   2.4405   2.5740   2.5740   2.6812   2.6812   2.8832   2.8832
     3.0493   3.0493   3.1796   3.1796   3.9551   3.9551   4.7180   4.7180
     7.1984   7.1984

          k = 0.3536-0.2041-0.5774 (  5552 PWs)   bands (ev):

   -12.9730 -12.9730 -12.8364 -12.8364 -12.6922 -12.6922 -12.5282 -12.5282
   -12.2880 -12.2880 -12.1713 -12.1713  -3.2907  -3.2907  -1.7832  -1.7832
    -1.4273  -1.4273  -0.5906  -0.5906  -0.1381  -0.1381   0.0061   0.0061
     0.7352   0.7352   0.8278   0.8278   1.3060   1.3060   1.4011   1.4011
     1.6649   1.6649   1.8112   1.8112   2.1187   2.1187   2.1521   2.1521
     2.4334   2.4334   2.6163   2.6163   2.7018   2.7018   2.8751   2.8751
     3.0856   3.0856   3.2091   3.2091   3.7191   3.7191   4.7367   4.7367
     7.1580   7.1580

          k = 0.1179 0.0680 0.1925 (  5587 PWs)   bands (ev):

   -13.4294 -13.4294 -12.7382 -12.7382 -12.6154 -12.6154 -12.3024 -12.3024
   -12.2887 -12.2887 -12.0466 -12.0466  -2.9101  -2.9101  -1.4814  -1.4814
    -1.1160  -1.1160  -0.4406  -0.4406  -0.1086  -0.1086  -0.0379  -0.0379
     0.1977   0.1977   0.4301   0.4301   0.6490   0.6490   0.6504   0.6504
     1.4944   1.4944   1.6982   1.6982   1.9228   1.9228   2.3015   2.3015
     2.3124   2.3124   2.5203   2.5203   2.6950   2.6950   2.9620   2.9620
     3.0438   3.0438   3.2699   3.2699   4.7335   4.7335   4.8358   4.8358
     7.8840   7.8840

          k = 0.4714 0.2722-0.0962 (  5608 PWs)   bands (ev):

   -13.0606 -13.0606 -13.0277 -13.0277 -12.5056 -12.5056 -12.4545 -12.4545
   -12.2697 -12.2697 -12.1467 -12.1467  -3.1993  -3.1993  -1.7391  -1.7391
    -1.4338  -1.4338  -0.2432  -0.2432   0.0687   0.0687   0.2545   0.2545
     0.2914   0.2914   0.6574   0.6574   0.7792   0.7792   1.3454   1.3454
     1.4706   1.4706   1.6681   1.6681   1.8555   1.8555   2.2457   2.2457
     2.5714   2.5714   2.5757   2.5757   2.6147   2.6147   2.9505   2.9505
     2.9687   2.9687   3.1941   3.1941   4.2592   4.2592   4.8322   4.8322
     7.3232   7.3232

          k = 0.1179 0.2041 0.2887 (  5585 PWs)   bands (ev):

   -13.2841 -13.2841 -12.8852 -12.8852 -12.5445 -12.5445 -12.3647 -12.3647
   -12.2698 -12.2698 -12.0948 -12.0948  -3.0337  -3.0337  -1.7441  -1.7441
    -0.8401  -0.8401  -0.8139  -0.8139  -0.1391  -0.1391   0.2794   0.2794
     0.3844   0.3844   0.5102   0.5102   0.6448   0.6448   0.8004   0.8004
     1.7063   1.7063   1.8117   1.8117   1.9956   1.9956   2.2709   2.2709
     2.4052   2.4052   2.4173   2.4173   2.7771   2.7771   2.8345   2.8345
     3.0380   3.0380   3.1923   3.1923   4.4627   4.4627   4.7070   4.7070
     7.6437   7.6437

          k = 0.4714 0.4082 0.0000 (  5594 PWs)   bands (ev):

   -12.9781 -12.9781 -12.9072 -12.9072 -12.5918 -12.5918 -12.5087 -12.5087
   -12.3191 -12.3191 -12.1806 -12.1806  -3.3787  -3.3787  -2.0862  -2.0862
    -1.0440  -1.0440  -0.1737  -0.1737  -0.0203  -0.0203   0.2514   0.2514
     0.3435   0.3435   0.8127   0.8127   0.9732   0.9732   1.4822   1.4822
     1.5220   1.5220   1.7554   1.7554   1.9293   1.9293   2.1107   2.1107
     2.4994   2.4994   2.6582   2.6582   2.7006   2.7006   2.8744   2.8744
     3.0451   3.0451   3.0556   3.0556   4.0652   4.0652   4.8340   4.8340
     7.3544   7.3544

          k = 0.4714-0.2722-0.4811 (  5628 PWs)   bands (ev):

   -12.9280 -12.9280 -12.8030 -12.8030 -12.6731 -12.6731 -12.5387 -12.5387
   -12.3321 -12.3321 -12.2226 -12.2226  -3.3426  -3.3426  -2.3325  -2.3325
    -0.8869  -0.8869  -0.3744  -0.3744  -0.0965  -0.0965   0.0508   0.0508
     0.6325   0.6325   1.0275   1.0275   1.2776   1.2776   1.3573   1.3573
     1.7227   1.7227   1.8122   1.8122   2.0348   2.0348   2.1298   2.1298
     2.3800   2.3800   2.6395   2.6395   2.6525   2.6525   2.8273   2.8273
     3.0768   3.0768   3.1144   3.1144   3.8845   3.8845   4.6398   4.6398
     7.3294   7.3294

          k = 0.1179-0.3402-0.0962 (  5585 PWs)   bands (ev):

   -13.2937 -13.2937 -12.8569 -12.8569 -12.5831 -12.5831 -12.3234 -12.3234
   -12.2279 -12.2279 -12.1618 -12.1618  -2.5153  -2.5153  -2.1764  -2.1764
    -1.6430  -1.6430  -0.3249  -0.3249  -0.1601  -0.1601   0.1111   0.1111
     0.4426   0.4426   0.5192   0.5192   0.7578   0.7578   1.3456   1.3456
     1.5100   1.5100   1.8979   1.8979   2.0447   2.0447   2.2022   2.2022
     2.2823   2.2823   2.4025   2.4025   2.6397   2.6397   2.9785   2.9785
     3.1571   3.1571   3.2864   3.2864   4.3491   4.3491   4.7149   4.7149
     7.3447   7.3447

          k = 0.4714-0.1361-0.3849 (  5594 PWs)   bands (ev):

   -12.9793 -12.9793 -12.9317 -12.9317 -12.5508 -12.5508 -12.4649 -12.4649
   -12.3236 -12.3236 -12.2388 -12.2388  -3.0788  -3.0788  -2.4750  -2.4750
    -0.8852  -0.8852  -0.4065  -0.4065  -0.3740  -0.3740   0.0390   0.0390
     0.6765   0.6765   0.9537   0.9537   1.2082   1.2082   1.4418   1.4418
     1.7174   1.7174   1.9269   1.9269   2.0432   2.0432   2.2220   2.2220
     2.3813   2.3813   2.4468   2.4468   2.7264   2.7264   2.8436   2.8436
     3.0324   3.0324   3.1661   3.1661   4.0047   4.0047   4.4491   4.4491
     7.3245   7.3245

          k = 0.1179-0.2041-0.0000 (  5587 PWs)   bands (ev):

   -13.4335 -13.4335 -12.7033 -12.7033 -12.6487 -12.6487 -12.2917 -12.2917
   -12.2597 -12.2597 -12.0876 -12.0876  -2.1810  -2.1810  -2.0056  -2.0056
    -1.9117  -1.9117  -0.2171  -0.2171  -0.1840  -0.1840   0.1156   0.1156
     0.2101   0.2101   0.3489   0.3489   0.6963   0.6963   1.0458   1.0458
     1.6486   1.6486   1.8758   1.8758   2.0012   2.0012   2.1350   2.1350
     2.2373   2.2373   2.3420   2.3420   2.6587   2.6587   2.8994   2.8994
     3.1934   3.1934   3.3693   3.3693   4.5376   4.5376   4.9437   4.9437
     7.6487   7.6487

          k = 0.4714 0.0000-0.2887 (  5608 PWs)   bands (ev):

   -13.0508 -13.0508 -13.0508 -13.0508 -12.4507 -12.4507 -12.4507 -12.4507
   -12.2328 -12.2328 -12.2328 -12.2328  -2.6214  -2.6214  -2.6214  -2.6214
    -0.8209  -0.8209  -0.8209  -0.8209  -0.1675  -0.1675  -0.1675  -0.1675
     0.7634   0.7634   0.7634   0.7634   1.2817   1.2817   1.2817   1.2817
     1.6707   1.6707   1.6707   1.6707   2.1917   2.1917   2.1917   2.1917
     2.3052   2.3052   2.3052   2.3052   2.8275   2.8275   2.8275   2.8275
     3.1601   3.1601   3.1601   3.1601   4.3198   4.3198   4.3198   4.3198
     7.5478   7.5478

          k = 0.2357 0.1361 0.3849 (  5584 PWs)   bands (ev):

   -13.1498 -13.1498 -12.8926 -12.8926 -12.5621 -12.5621 -12.4478 -12.4478
   -12.2886 -12.2886 -12.1244 -12.1244  -3.2289  -3.2289  -1.7151  -1.7151
    -1.0995  -1.0995  -0.5144  -0.5144  -0.3636  -0.3636   0.3493   0.3493
     0.3980   0.3980   0.6908   0.6908   0.7900   0.7900   1.1625   1.1625
     1.4577   1.4577   1.9666   1.9666   2.1117   2.1117   2.3386   2.3386
     2.4315   2.4315   2.4987   2.4987   2.8136   2.8136   2.8234   2.8234
     3.0303   3.0303   3.0580   3.0580   4.1345   4.1345   4.7262   4.7262
     7.4068   7.4068

          k = 0.5893 0.3402 0.0962 (  5614 PWs)   bands (ev):

   -12.8715 -12.8715 -12.7967 -12.7967 -12.6002 -12.6002 -12.5635 -12.5635
   -12.4115 -12.4115 -12.2603 -12.2603  -3.4870  -3.4870  -2.5768  -2.5768
    -0.5333  -0.5333   0.0998   0.0998   0.2086   0.2086   0.2499   0.2499
     0.3485   0.3485   0.7473   0.7473   1.1443   1.1443   1.4060   1.4060
     1.6473   1.6473   1.7092   1.7092   1.8064   1.8064   2.1329   2.1329
     2.5125   2.5125   2.6717   2.6717   2.6856   2.6856   2.8470   2.8470
     2.9276   2.9276   3.0277   3.0277   4.0646   4.0646   4.7038   4.7038
     7.6744   7.6744

          k = 0.5893-0.3402-0.3849 (  5604 PWs)   bands (ev):

   -12.8031 -12.8031 -12.7170 -12.7170 -12.6152 -12.6152 -12.5713 -12.5713
   -12.4552 -12.4552 -12.3528 -12.3528  -3.3850  -3.3850  -2.8994  -2.8994
    -0.3410  -0.3410  -0.0036  -0.0036   0.0842   0.0842   0.2025   0.2025
     0.5749   0.5749   0.8419   0.8419   1.3829   1.3829   1.4406   1.4406
     1.6169   1.6169   1.7421   1.7421   1.9668   1.9668   2.3009   2.3009
     2.3044   2.3044   2.5825   2.5825   2.6576   2.6576   2.7556   2.7556
     3.0142   3.0142   3.0529   3.0529   4.0341   4.0341   4.4139   4.4139
     7.7551   7.7551

          k = 0.2357-0.4082-0.0000 (  5584 PWs)   bands (ev):

   -13.1736 -13.1736 -12.8095 -12.8095 -12.6761 -12.6761 -12.3369 -12.3369
   -12.2911 -12.2911 -12.1817 -12.1817  -2.9289  -2.9289  -1.8550  -1.8550
    -1.7385  -1.7385  -0.4028  -0.4028  -0.0176  -0.0176   0.1346   0.1346
     0.4354   0.4354   0.5256   0.5256   0.8783   0.8783   1.6200   1.6200
     1.7175   1.7175   1.7822   1.7822   2.0779   2.0779   2.2069   2.2069
     2.3338   2.3338   2.5041   2.5041   2.7041   2.7041   2.9488   2.9488
     3.0449   3.0449   3.2763   3.2763   4.0806   4.0806   4.7312   4.7312
     7.1443   7.1443

          k = 0.5893-0.2041-0.2887 (  5614 PWs)   bands (ev):

   -12.8618 -12.8618 -12.8618 -12.8618 -12.5046 -12.5046 -12.5046 -12.5046
   -12.3873 -12.3873 -12.3873 -12.3873  -3.0369  -3.0369  -3.0369  -3.0369
    -0.3878  -0.3878  -0.3878  -0.3878  -0.0124  -0.0124  -0.0124  -0.0124
     0.8201   0.8201   0.8201   0.8201   1.4310   1.4310   1.4310   1.4310
     1.7648   1.7648   1.7648   1.7648   2.1843   2.1843   2.1843   2.1843
     2.3610   2.3610   2.3610   2.3610   2.7515   2.7515   2.7515   2.7515
     3.0513   3.0513   3.0513   3.0513   4.1821   4.1821   4.1821   4.1821
     7.6919   7.6919

          k = 0.0000 0.0000-0.8660 (  5616 PWs)   bands (ev):

   -12.6289 -12.6289 -12.6289 -12.6289 -12.6289 -12.6289 -12.6289 -12.6289
   -12.5038 -12.5038 -12.5038 -12.5038  -3.2585  -3.2585  -3.2585  -3.2585
    -0.0277  -0.0277  -0.0277  -0.0277   0.4594   0.4594   0.4594   0.4594
     0.4594   0.4594   0.4594   0.4594   1.5167   1.5167   1.5167   1.5167
     1.5167   1.5167   1.5167   1.5167   2.1659   2.1659   2.1659   2.1659
     2.5742   2.5742   2.5742   2.5742   2.5742   2.5742   2.5742   2.5742
     3.0495   3.0495   3.0495   3.0495   4.1662   4.1662   4.1662   4.1662
     8.2014   8.2014

     the Fermi energy is     2.9641 ev

!    total energy              =    -219.13210892 Ry
     Harris-Foulkes estimate   =    -219.13210896 Ry
     estimated scf accuracy    <       0.00000008 Ry

     The total energy is the sum of the following terms:

     one-electron contribution =     -66.98726414 Ry
     hartree contribution      =      59.55335944 Ry
     xc contribution           =     -57.82110434 Ry
     ewald contribution        =    -153.86933019 Ry
     smearing contrib. (-TS)   =      -0.00776968 Ry

     convergence has been achieved in   7 iterations

     negative rho (up, down):  4.367E-06 0.000E+00

     Forces acting on atoms (cartesian axes, Ry/au):

     atom    1 type  1   force =     0.00000000    0.00000000    0.14701301
     atom    2 type  1   force =     0.00000000    0.00000000   -0.14701301
     atom    3 type  1   force =     0.00000000   -0.00000000    0.14701301
     atom    4 type  1   force =     0.00000000    0.00000000   -0.14701301
     atom    5 type  2   force =    -0.07134417    0.00000000    0.00000000
     atom    6 type  2   force =    -0.03567208   -0.06178586   -0.00000000
     atom    7 type  2   force =     0.03567208   -0.06178586   -0.00000000
     atom    8 type  2   force =    -0.03567208    0.06178586    0.00000000
     atom    9 type  2   force =     0.03567208    0.06178586    0.00000000
     atom   10 type  2   force =     0.07134417    0.00000000   -0.00000000

     Total force =     0.342040     Total SCF correction =     0.000088

     number of scf cycles    =   2
     number of bfgs steps    =   1

     energy             old  =    -218.7822067520 Ry
     energy             new  =    -219.1321089151 Ry

     CASE: energy            _new < energy            _old

     new trust radius        =       0.0981241357 bohr
     new conv_thr            =       0.0000001470 Ry


ATOMIC_POSITIONS (crystal)
Al       0.124187880   0.124187880   0.124187880
Al       0.375812120   0.375812120   0.375812120
Al       0.624187880   0.624187880   0.624187880
Al       0.875812120   0.875812120   0.875812120
O        0.046939521   0.750000000   0.453060479
O        0.250000000   0.546939521   0.953060479
O        0.453060479   0.046939521   0.750000000
O        0.546939521   0.953060479   0.250000000
O        0.750000000   0.453060479   0.046939521
O        0.953060479   0.250000000   0.546939521



     Writing output data file pwscf.save\
     NEW-OLD atomic charge density approx. for the potential

     total cpu time spent up to now is      345.6 secs

     Self-consistent Calculation

     iteration #  1     ecut=    50.00 Ry     beta= 0.70
     Davidson diagonalization with overlap
     ethr =  1.00E-06,  avg # of iterations =  5.9

     total cpu time spent up to now is      388.9 secs

     total energy              =    -219.19324468 Ry
     Harris-Foulkes estimate   =    -219.19788960 Ry
     estimated scf accuracy    <       0.00771180 Ry

     iteration #  2     ecut=    50.00 Ry     beta= 0.70
     Davidson diagonalization with overlap
     ethr =  1.61E-05,  avg # of iterations =  2.0

     total cpu time spent up to now is      410.7 secs

     total energy              =    -219.19157887 Ry
     Harris-Foulkes estimate   =    -219.19940705 Ry
     estimated scf accuracy    <       0.02206175 Ry

     iteration #  3     ecut=    50.00 Ry     beta= 0.70
     Davidson diagonalization with overlap
     ethr =  1.61E-05,  avg # of iterations =  2.0

     total cpu time spent up to now is      432.0 secs

     total energy              =    -219.19541567 Ry
     Harris-Foulkes estimate   =    -219.19661647 Ry
     estimated scf accuracy    <       0.00397260 Ry

     iteration #  4     ecut=    50.00 Ry     beta= 0.70
     Davidson diagonalization with overlap
     ethr =  8.28E-06,  avg # of iterations =  2.0

     total cpu time spent up to now is      450.0 secs

     total energy              =    -219.19598017 Ry
     Harris-Foulkes estimate   =    -219.19598945 Ry
     estimated scf accuracy    <       0.00002907 Ry

     iteration #  5     ecut=    50.00 Ry     beta= 0.70
     Davidson diagonalization with overlap
     ethr =  6.06E-08,  avg # of iterations =  3.0

     total cpu time spent up to now is      473.4 secs

     total energy              =    -219.19599866 Ry
     Harris-Foulkes estimate   =    -219.19599961 Ry
     estimated scf accuracy    <       0.00000341 Ry

     iteration #  6     ecut=    50.00 Ry     beta= 0.70
     Davidson diagonalization with overlap
     ethr =  7.11E-09,  avg # of iterations =  2.0

     total cpu time spent up to now is      491.2 secs

     End of self-consistent calculation

          k = 0.0000 0.0000 0.0000 (  5575 PWs)   bands (ev):

   -13.5829 -13.5829 -12.7034 -12.7034 -12.7034 -12.7034 -12.3038 -12.3038
   -12.3038 -12.3038 -12.0636 -12.0636  -2.6187  -2.6187  -1.7102  -1.7102
    -1.3190  -1.3190  -0.1929  -0.1929  -0.1929  -0.1929  -0.1679  -0.1679
    -0.1679  -0.1679   0.5537   0.5537   0.7088   0.7088   0.7088   0.7088
     1.2695   1.2695   1.2695   1.2695   1.9841   1.9841   2.1671   2.1671
     2.3138   2.3138   2.3138   2.3138   2.9314   2.9314   3.0099   3.0099
     3.0099   3.0099   3.4414   3.4414   4.7119   4.7119   5.3076   5.3076
     7.8975   7.8975

          k = 0.3536 0.2041-0.2887 (  5622 PWs)   bands (ev):

   -13.1728 -13.1728 -13.1728 -13.1728 -12.4752 -12.4752 -12.4752 -12.4752
   -12.2067 -12.2067 -12.2067 -12.2067  -2.5167  -2.5167  -2.5167  -2.5167
    -0.9887  -0.9887  -0.9887  -0.9887   0.0998   0.0998   0.0998   0.0998
     0.5037   0.5037   0.5037   0.5037   1.0919   1.0919   1.0919   1.0919
     1.3988   1.3988   1.3988   1.3988   2.0643   2.0643   2.0643   2.0643
     2.3540   2.3540   2.3540   2.3540   2.8279   2.8279   2.8279   2.8279
     3.2466   3.2466   3.2466   3.2466   4.5180   4.5180   4.5180   4.5180
     7.7664   7.7664

          k = 0.0000 0.1361 0.0962 (  5582 PWs)   bands (ev):

   -13.5304 -13.5304 -12.7720 -12.7720 -12.6724 -12.6724 -12.3177 -12.3177
   -12.2912 -12.2912 -12.0894 -12.0894  -2.7037  -2.7037  -1.5934  -1.5934
    -1.5238  -1.5238  -0.2416  -0.2416  -0.2152  -0.2152  -0.1606  -0.1606
     0.1572   0.1572   0.5183   0.5183   0.5591   0.5591   0.6160   0.6160
     1.4494   1.4494   1.6316   1.6316   2.1029   2.1029   2.1280   2.1280
     2.2447   2.2447   2.3298   2.3298   2.7234   2.7234   2.9233   2.9233
     3.1863   3.1863   3.3732   3.3732   4.6905   4.6905   5.0955   5.0955
     7.9327   7.9327

          k = 0.3536 0.3402-0.1925 (  5574 PWs)   bands (ev):

   -13.1438 -13.1438 -13.1252 -13.1252 -12.5204 -12.5204 -12.4760 -12.4760
   -12.2627 -12.2627 -12.1933 -12.1933  -2.9298  -2.9298  -2.0992  -2.0992
    -1.2918  -1.2918  -0.6136  -0.6136  -0.1661  -0.1661   0.1531   0.1531
     0.4866   0.4866   0.6435   0.6435   0.8369   0.8369   1.2699   1.2699
     1.5299   1.5299   1.6032   1.6032   1.9356   1.9356   2.2021   2.2021
     2.3601   2.3601   2.4409   2.4409   2.7441   2.7441   2.9065   2.9065
     3.1134   3.1134   3.2623   3.2623   4.3111   4.3111   4.6395   4.6395
     7.4820   7.4820

          k = 0.0000 0.2722 0.1925 (  5578 PWs)   bands (ev):

   -13.3834 -13.3834 -12.9484 -12.9484 -12.5880 -12.5880 -12.3737 -12.3737
   -12.2565 -12.2565 -12.1474 -12.1474  -2.7225  -2.7225  -2.0997  -2.0997
    -1.2658  -1.2658  -0.6113  -0.6113  -0.0293  -0.0293   0.0995   0.0995
     0.4633   0.4633   0.5035   0.5035   0.5690   0.5690   0.7809   0.7809
     1.4932   1.4932   1.9463   1.9463   2.0802   2.0802   2.1242   2.1242
     2.1913   2.1913   2.3853   2.3853   2.6222   2.6222   2.8949   2.8949
     3.2092   3.2092   3.2963   3.2963   4.6088   4.6088   4.6829   4.6829
     7.7159   7.7159

          k = 0.3536 0.4763-0.0962 (  5578 PWs)   bands (ev):

   -13.0696 -13.0696 -13.0025 -13.0025 -12.6244 -12.6244 -12.5254 -12.5254
   -12.3244 -12.3244 -12.1989 -12.1989  -3.2136  -3.2136  -1.8062  -1.8062
    -1.4999  -1.4999  -0.5107  -0.5107  -0.2965  -0.2965   0.2008   0.2008
     0.5276   0.5276   0.5729   0.5729   1.1277   1.1277   1.3639   1.3639
     1.5933   1.5933   1.8443   1.8443   1.9701   1.9701   2.1684   2.1684
     2.3938   2.3938   2.5982   2.5982   2.7177   2.7177   2.8389   2.8389
     3.0828   3.0828   3.2213   3.2213   3.9851   3.9851   4.7065   4.7065
     7.2984   7.2984

          k = 0.3536-0.2041-0.5774 (  5552 PWs)   bands (ev):

   -13.0212 -13.0212 -12.8910 -12.8910 -12.7219 -12.7219 -12.5813 -12.5813
   -12.3375 -12.3375 -12.2041 -12.2041  -3.3127  -3.3127  -1.6395  -1.6395
    -1.6360  -1.6360  -0.6372  -0.6372  -0.1976  -0.1976   0.0093   0.0093
     0.7241   0.7241   0.7953   0.7953   1.2531   1.2531   1.3422   1.3422
     1.6513   1.6513   1.7378   1.7378   2.0725   2.0725   2.0869   2.0869
     2.3776   2.3776   2.6733   2.6733   2.6941   2.6941   2.8454   2.8454
     3.1377   3.1377   3.2587   3.2587   3.7450   3.7450   4.7153   4.7153
     7.2548   7.2548

          k = 0.1179 0.0680 0.1925 (  5587 PWs)   bands (ev):

   -13.4781 -13.4781 -12.7932 -12.7932 -12.6796 -12.6796 -12.3285 -12.3285
   -12.3064 -12.3064 -12.0977 -12.0977  -2.9919  -2.9919  -1.4991  -1.4991
    -1.0928  -1.0928  -0.4500  -0.4500  -0.1969  -0.1969  -0.0704  -0.0704
     0.1026   0.1026   0.3686   0.3686   0.6336   0.6336   0.6384   0.6384
     1.4601   1.4601   1.6438   1.6438   1.9574   1.9574   2.2862   2.2862
     2.2879   2.2879   2.5083   2.5083   2.7160   2.7160   3.0105   3.0105
     3.0369   3.0369   3.2682   3.2682   4.7378   4.7378   4.8924   4.8924
     7.9296   7.9296

          k = 0.4714 0.2722-0.0962 (  5608 PWs)   bands (ev):

   -13.1058 -13.1058 -13.0817 -13.0817 -12.5484 -12.5484 -12.5053 -12.5053
   -12.2964 -12.2964 -12.1933 -12.1933  -3.2276  -3.2276  -1.7739  -1.7739
    -1.4747  -1.4747  -0.2744  -0.2744   0.0404   0.0404   0.2591   0.2591
     0.2616   0.2616   0.6059   0.6059   0.7084   0.7084   1.2825   1.2825
     1.4559   1.4559   1.6410   1.6410   1.7903   1.7903   2.1754   2.1754
     2.5738   2.5738   2.5846   2.5846   2.6538   2.6538   2.9597   2.9597
     2.9926   2.9926   3.1968   3.1968   4.2792   4.2792   4.8276   4.8276
     7.4317   7.4317

          k = 0.1179 0.2041 0.2887 (  5585 PWs)   bands (ev):

   -13.3337 -13.3337 -12.9346 -12.9346 -12.6052 -12.6052 -12.4005 -12.4005
   -12.2918 -12.2918 -12.1419 -12.1419  -3.0857  -3.0857  -1.7737  -1.7737
    -0.8620  -0.8620  -0.8282  -0.8282  -0.1985  -0.1985   0.2268   0.2268
     0.3609   0.3609   0.4824   0.4824   0.6176   0.6176   0.7452   0.7452
     1.6296   1.6296   1.8124   1.8124   1.9431   1.9431   2.2596   2.2596
     2.3895   2.3895   2.4111   2.4111   2.7740   2.7740   2.8803   2.8803
     3.0576   3.0576   3.2034   3.2034   4.5077   4.5077   4.7087   4.7087
     7.7274   7.7274

          k = 0.4714 0.4082 0.0000 (  5594 PWs)   bands (ev):

   -13.0238 -13.0238 -12.9612 -12.9612 -12.6298 -12.6298 -12.5562 -12.5562
   -12.3553 -12.3553 -12.2275 -12.2275  -3.3972  -3.3972  -2.0919  -2.0919
    -1.1079  -1.1079  -0.2316  -0.2316  -0.0422  -0.0422   0.2508   0.2508
     0.3027   0.3027   0.7670   0.7670   0.9170   0.9170   1.4331   1.4331
     1.5031   1.5031   1.6949   1.6949   1.8965   1.8965   2.0524   2.0524
     2.4654   2.4654   2.6793   2.6793   2.7296   2.7296   2.8411   2.8411
     3.0708   3.0708   3.0925   3.0925   4.0928   4.0928   4.8202   4.8202
     7.4567   7.4567

          k = 0.4714-0.2722-0.4811 (  5628 PWs)   bands (ev):

   -12.9745 -12.9745 -12.8562 -12.8562 -12.7066 -12.7066 -12.5895 -12.5895
   -12.3796 -12.3796 -12.2603 -12.2603  -3.3585  -3.3585  -2.3354  -2.3354
    -0.9420  -0.9420  -0.4279  -0.4279  -0.1477  -0.1477   0.0435   0.0435
     0.6122   0.6122   0.9676   0.9676   1.2543   1.2543   1.3066   1.3066
     1.6796   1.6796   1.7752   1.7752   1.9689   1.9689   2.0825   2.0825
     2.3041   2.3041   2.6476   2.6476   2.7017   2.7017   2.7971   2.7971
     3.1326   3.1326   3.1520   3.1520   3.9063   3.9063   4.6293   4.6293
     7.4289   7.4289

          k = 0.1179-0.3402-0.0962 (  5585 PWs)   bands (ev):

   -13.3402 -13.3402 -12.9129 -12.9129 -12.6365 -12.6365 -12.3628 -12.3628
   -12.2611 -12.2611 -12.1975 -12.1975  -2.5500  -2.5500  -2.2954  -2.2954
    -1.5992  -1.5992  -0.3537  -0.3537  -0.1588  -0.1588   0.0786   0.0786
     0.3906   0.3906   0.4970   0.4970   0.7217   0.7217   1.2272   1.2272
     1.4716   1.4716   1.8874   1.8874   2.0167   2.0167   2.1816   2.1816
     2.2910   2.2910   2.4057   2.4057   2.6388   2.6388   2.9866   2.9866
     3.1516   3.1516   3.2991   3.2991   4.3665   4.3665   4.7441   4.7441
     7.4306   7.4306

          k = 0.4714-0.1361-0.3849 (  5594 PWs)   bands (ev):

   -13.0261 -13.0261 -12.9781 -12.9781 -12.5976 -12.5976 -12.5212 -12.5212
   -12.3627 -12.3627 -12.2714 -12.2714  -3.1000  -3.1000  -2.4897  -2.4897
    -0.9294  -0.9294  -0.4538  -0.4538  -0.4010  -0.4010   0.0023   0.0023
     0.6558   0.6558   0.8718   0.8718   1.1873   1.1873   1.3960   1.3960
     1.6759   1.6759   1.8740   1.8740   2.0419   2.0419   2.1807   2.1807
     2.3143   2.3143   2.4608   2.4608   2.7673   2.7673   2.8003   2.8003
     3.0739   3.0739   3.1856   3.1856   4.0279   4.0279   4.4513   4.4513
     7.4287   7.4287

          k = 0.1179-0.2041-0.0000 (  5587 PWs)   bands (ev):

   -13.4807 -13.4807 -12.7666 -12.7666 -12.7055 -12.7055 -12.3152 -12.3152
   -12.2846 -12.2846 -12.1343 -12.1343  -2.4213  -2.4213  -2.0392  -2.0392
    -1.7379  -1.7379  -0.2829  -0.2829  -0.1571  -0.1571   0.0356   0.0356
     0.1629   0.1629   0.3674   0.3674   0.6849   0.6849   0.9024   0.9024
     1.6006   1.6006   1.8438   1.8438   1.9971   1.9971   2.1709   2.1709
     2.2089   2.2089   2.3451   2.3451   2.6540   2.6540   2.9471   2.9471
     3.1853   3.1853   3.3564   3.3564   4.5512   4.5512   4.9958   4.9958
     7.6844   7.6844

          k = 0.4714 0.0000-0.2887 (  5608 PWs)   bands (ev):

   -13.0987 -13.0987 -13.0987 -13.0987 -12.5037 -12.5037 -12.5037 -12.5037
   -12.2649 -12.2649 -12.2649 -12.2649  -2.6557  -2.6557  -2.6557  -2.6557
    -0.8464  -0.8464  -0.8464  -0.8464  -0.2032  -0.2032  -0.2032  -0.2032
     0.7304   0.7304   0.7304   0.7304   1.2196   1.2196   1.2196   1.2196
     1.6296   1.6296   1.6296   1.6296   2.1850   2.1850   2.1850   2.1850
     2.2818   2.2818   2.2818   2.2818   2.8425   2.8425   2.8425   2.8425
     3.1685   3.1685   3.1685   3.1685   4.3373   4.3373   4.3373   4.3373
     7.6505   7.6505

          k = 0.2357 0.1361 0.3849 (  5584 PWs)   bands (ev):

   -13.2013 -13.2013 -12.9365 -12.9365 -12.6211 -12.6211 -12.4841 -12.4841
   -12.3196 -12.3196 -12.1691 -12.1691  -3.2629  -3.2629  -1.7078  -1.7078
    -1.1645  -1.1645  -0.5428  -0.5428  -0.4258  -0.4258   0.3261   0.3261
     0.3432   0.3432   0.6843   0.6843   0.7444   0.7444   1.1198   1.1198
     1.4266   1.4266   1.9451   1.9451   2.0170   2.0170   2.3435   2.3435
     2.3931   2.3931   2.4948   2.4948   2.7712   2.7712   2.8662   2.8662
     3.0393   3.0393   3.1139   3.1139   4.1829   4.1829   4.7182   4.7182
     7.4947   7.4947

          k = 0.5893 0.3402 0.0962 (  5614 PWs)   bands (ev):

   -12.9130 -12.9130 -12.8552 -12.8552 -12.6383 -12.6383 -12.6057 -12.6057
   -12.4443 -12.4443 -12.3174 -12.3174  -3.4965  -3.4965  -2.5831  -2.5831
    -0.5854  -0.5854   0.0563   0.0563   0.2041   0.2041   0.2053   0.2053
     0.3053   0.3053   0.6803   0.6803   1.0865   1.0865   1.4013   1.4013
     1.5958   1.5958   1.6399   1.6399   1.7844   1.7844   2.0792   2.0792
     2.4856   2.4856   2.6457   2.6457   2.6713   2.6713   2.8055   2.8055
     2.9944   2.9944   3.0873   3.0873   4.1006   4.1006   4.6990   4.6990
     7.7796   7.7796

          k = 0.5893-0.3402-0.3849 (  5604 PWs)   bands (ev):

   -12.8451 -12.8451 -12.7634 -12.7634 -12.6615 -12.6615 -12.6156 -12.6156
   -12.4965 -12.4965 -12.4036 -12.4036  -3.3916  -3.3916  -2.9041  -2.9041
    -0.3759  -0.3759  -0.0373  -0.0373   0.0343   0.0343   0.1636   0.1636
     0.5377   0.5377   0.7738   0.7738   1.3676   1.3676   1.3905   1.3905
     1.5893   1.5893   1.7091   1.7091   1.8894   1.8894   2.2128   2.2128
     2.2642   2.2642   2.5692   2.5692   2.6563   2.6563   2.7054   2.7054
     3.0859   3.0859   3.1301   3.1301   4.0642   4.0642   4.4219   4.4219
     7.8646   7.8646

          k = 0.2357-0.4082-0.0000 (  5584 PWs)   bands (ev):

   -13.2185 -13.2185 -12.8723 -12.8723 -12.7147 -12.7147 -12.3857 -12.3857
   -12.3321 -12.3321 -12.2116 -12.2116  -2.9560  -2.9560  -1.9583  -1.9583
    -1.7116  -1.7116  -0.4324  -0.4324  -0.0163  -0.0163   0.1131   0.1131
     0.3538   0.3538   0.5119   0.5119   0.8074   0.8074   1.5840   1.5840
     1.7164   1.7164   1.7177   1.7177   2.0468   2.0468   2.1704   2.1704
     2.3041   2.3041   2.5326   2.5326   2.7152   2.7152   2.9012   2.9012
     3.0627   3.0627   3.2988   3.2988   4.1030   4.1030   4.7364   4.7364
     7.2490   7.2490

          k = 0.5893-0.2041-0.2887 (  5614 PWs)   bands (ev):

   -12.9052 -12.9052 -12.9052 -12.9052 -12.5610 -12.5610 -12.5610 -12.5610
   -12.4225 -12.4225 -12.4225 -12.4225  -3.0466  -3.0466  -3.0466  -3.0466
    -0.4258  -0.4258  -0.4258  -0.4258  -0.0532  -0.0532  -0.0532  -0.0532
     0.7675   0.7675   0.7675   0.7675   1.3919   1.3919   1.3919   1.3919
     1.7282   1.7282   1.7282   1.7282   2.1360   2.1360   2.1360   2.1360
     2.3410   2.3410   2.3410   2.3410   2.7325   2.7325   2.7325   2.7325
     3.0991   3.0991   3.0991   3.0991   4.1987   4.1987   4.1987   4.1987
     7.8104   7.8104

          k = 0.0000 0.0000-0.8660 (  5616 PWs)   bands (ev):

   -12.6667 -12.6667 -12.6667 -12.6667 -12.6667 -12.6667 -12.6667 -12.6667
   -12.5641 -12.5641 -12.5641 -12.5641  -3.2617  -3.2617  -3.2617  -3.2617
    -0.0454  -0.0454  -0.0454  -0.0454   0.4034   0.4034   0.4034   0.4034
     0.4034   0.4034   0.4034   0.4034   1.4890   1.4890   1.4890   1.4890
     1.4890   1.4890   1.4890   1.4890   2.0662   2.0662   2.0662   2.0662
     2.5341   2.5341   2.5341   2.5341   2.5341   2.5341   2.5341   2.5341
     3.1509   3.1509   3.1509   3.1509   4.1904   4.1904   4.1904   4.1904
     8.3404   8.3404

     the Fermi energy is     2.9864 ev

!    total energy              =    -219.19599909 Ry
     Harris-Foulkes estimate   =    -219.19599911 Ry
     estimated scf accuracy    <       0.00000006 Ry

     The total energy is the sum of the following terms:

     one-electron contribution =     -67.59919288 Ry
     hartree contribution      =      59.81710721 Ry
     xc contribution           =     -57.84271438 Ry
     ewald contribution        =    -153.56472021 Ry
     smearing contrib. (-TS)   =      -0.00647884 Ry

     convergence has been achieved in   6 iterations

     Forces acting on atoms (cartesian axes, Ry/au):

     atom    1 type  1   force =     0.00000000    0.00000000    0.03411120
     atom    2 type  1   force =     0.00000000    0.00000000   -0.03411120
     atom    3 type  1   force =     0.00000000    0.00000000    0.03411120
     atom    4 type  1   force =     0.00000000    0.00000000   -0.03411120
     atom    5 type  2   force =    -0.08750893   -0.00000000    0.00000000
     atom    6 type  2   force =    -0.04375447   -0.07578496   -0.00000000
     atom    7 type  2   force =     0.04375447   -0.07578496   -0.00000000
     atom    8 type  2   force =    -0.04375447    0.07578496    0.00000000
     atom    9 type  2   force =     0.04375447    0.07578496    0.00000000
     atom   10 type  2   force =     0.08750893    0.00000000   -0.00000000

     Total force =     0.224947     Total SCF correction =     0.000063

     number of scf cycles    =   3
     number of bfgs steps    =   2

     energy             old  =    -219.1321089151 Ry
     energy             new  =    -219.1959990924 Ry

     CASE: energy            _new < energy            _old

     new trust radius        =       0.1079365493 bohr
     new conv_thr            =       0.0000000875 Ry


ATOMIC_POSITIONS (crystal)
Al       0.127887798   0.127887798   0.127887798
Al       0.372112202   0.372112202   0.372112202
Al       0.627887798   0.627887798   0.627887798
Al       0.872112202   0.872112202   0.872112202
O        0.039139557   0.750000000   0.460860443
O        0.250000000   0.539139557   0.960860443
O        0.460860443   0.039139557   0.750000000
O        0.539139557   0.960860443   0.250000000
O        0.750000000   0.460860443   0.039139557
O        0.960860443   0.250000000   0.539139557



     Writing output data file pwscf.save\
     NEW-OLD atomic charge density approx. for the potential

     total cpu time spent up to now is      494.5 secs

     Self-consistent Calculation

     iteration #  1     ecut=    50.00 Ry     beta= 0.70
     Davidson diagonalization with overlap
     ethr =  1.00E-06,  avg # of iterations =  6.3

     negative rho (up, down):  2.544E-07 0.000E+00

     total cpu time spent up to now is      539.1 secs

     total energy              =    -219.25958798 Ry
     Harris-Foulkes estimate   =    -219.26188395 Ry
     estimated scf accuracy    <       0.00496732 Ry

     iteration #  2     ecut=    50.00 Ry     beta= 0.70
     Davidson diagonalization with overlap
     ethr =  1.03E-05,  avg # of iterations =  2.0

     negative rho (up, down):  1.770E-06 0.000E+00

     total cpu time spent up to now is      559.8 secs

     total energy              =    -219.26004796 Ry
     Harris-Foulkes estimate   =    -219.26062516 Ry
     estimated scf accuracy    <       0.00105076 Ry

     iteration #  3     ecut=    50.00 Ry     beta= 0.70
     Davidson diagonalization with overlap
     ethr =  2.19E-06,  avg # of iterations =  2.2

     negative rho (up, down):  2.200E-06 0.000E+00

     total cpu time spent up to now is      581.5 secs

     total energy              =    -219.25999735 Ry
     Harris-Foulkes estimate   =    -219.26077248 Ry
     estimated scf accuracy    <       0.00243178 Ry

     iteration #  4     ecut=    50.00 Ry     beta= 0.70
     Davidson diagonalization with overlap
     ethr =  2.19E-06,  avg # of iterations =  2.0

     negative rho (up, down):  2.534E-06 0.000E+00

     total cpu time spent up to now is      602.3 secs

     total energy              =    -219.26039170 Ry
     Harris-Foulkes estimate   =    -219.26044945 Ry
     estimated scf accuracy    <       0.00018361 Ry

     iteration #  5     ecut=    50.00 Ry     beta= 0.70
     Davidson diagonalization with overlap
     ethr =  3.83E-07,  avg # of iterations =  2.0

     negative rho (up, down):  2.688E-06 0.000E+00

     total cpu time spent up to now is      621.7 secs

     total energy              =    -219.26042027 Ry
     Harris-Foulkes estimate   =    -219.26042107 Ry
     estimated scf accuracy    <       0.00000246 Ry

     iteration #  6     ecut=    50.00 Ry     beta= 0.70
     Davidson diagonalization with overlap
     ethr =  5.12E-09,  avg # of iterations =  2.3

     negative rho (up, down):  2.701E-06 0.000E+00

     total cpu time spent up to now is      643.1 secs

     total energy              =    -219.26042095 Ry
     Harris-Foulkes estimate   =    -219.26042098 Ry
     estimated scf accuracy    <       0.00000011 Ry

     iteration #  7     ecut=    50.00 Ry     beta= 0.70
     Davidson diagonalization with overlap
     ethr =  2.31E-10,  avg # of iterations =  2.0

     negative rho (up, down):  2.703E-06 0.000E+00

     total cpu time spent up to now is      662.5 secs

     End of self-consistent calculation

          k = 0.0000 0.0000 0.0000 (  5575 PWs)   bands (ev):

   -13.6780 -13.6780 -12.8252 -12.8252 -12.8252 -12.8252 -12.3494 -12.3494
   -12.3494 -12.3494 -12.1749 -12.1749  -2.8179  -2.8179  -1.5574  -1.5574
    -1.3555  -1.3555  -0.3236  -0.3236  -0.3236  -0.3236  -0.2889  -0.2889
    -0.2889  -0.2889   0.5048   0.5048   0.7130   0.7130   0.7130   0.7130
     1.2283   1.2283   1.2283   1.2283   1.9509   1.9509   2.1736   2.1736
     2.1988   2.1988   2.1988   2.1988   2.8016   2.8016   3.0938   3.0938
     3.0938   3.0938   3.3849   3.3849   4.9239   4.9239   5.5192   5.5192
     7.9333   7.9333

          k = 0.3536 0.2041-0.2887 (  5622 PWs)   bands (ev):

   -13.2713 -13.2713 -13.2713 -13.2713 -12.5759 -12.5759 -12.5759 -12.5759
   -12.2805 -12.2805 -12.2805 -12.2805  -2.5890  -2.5890  -2.5890  -2.5890
    -1.0166  -1.0166  -1.0166  -1.0166   0.0914   0.0914   0.0914   0.0914
     0.4256   0.4256   0.4256   0.4256   0.9552   0.9552   0.9552   0.9552
     1.3150   1.3150   1.3150   1.3150   2.0191   2.0191   2.0191   2.0191
     2.3037   2.3037   2.3037   2.3037   2.7967   2.7967   2.7967   2.7967
     3.2649   3.2649   3.2649   3.2649   4.6836   4.6836   4.6836   4.6836
     7.8493   7.8493

          k = 0.0000 0.1361 0.0962 (  5582 PWs)   bands (ev):

   -13.6256 -13.6256 -12.8874 -12.8874 -12.7923 -12.7923 -12.3727 -12.3727
   -12.3401 -12.3401 -12.1972 -12.1972  -2.8509  -2.8509  -1.6505  -1.6505
    -1.4437  -1.4437  -0.3462  -0.3462  -0.3128  -0.3128  -0.2020  -0.2020
     0.0242   0.0242   0.3865   0.3865   0.5672   0.5672   0.6235   0.6235
     1.3742   1.3742   1.5649   1.5649   2.0588   2.0588   2.1388   2.1388
     2.1562   2.1562   2.2523   2.2523   2.6683   2.6683   2.9790   2.9790
     3.1891   3.1891   3.3241   3.3241   4.8943   4.8943   5.2973   5.2973
     7.9442   7.9442

          k = 0.3536 0.3402-0.1925 (  5574 PWs)   bands (ev):

   -13.2412 -13.2412 -13.2241 -13.2241 -12.6154 -12.6154 -12.5807 -12.5807
   -12.3333 -12.3333 -12.2739 -12.2739  -2.9706  -2.9706  -2.1995  -2.1995
    -1.2969  -1.2969  -0.6631  -0.6631  -0.2061  -0.2061   0.1179   0.1179
     0.4395   0.4395   0.5496   0.5496   0.7662   0.7662   1.1713   1.1713
     1.4517   1.4517   1.4584   1.4584   1.8951   1.8951   2.1068   2.1068
     2.3252   2.3252   2.4025   2.4025   2.7454   2.7454   2.8553   2.8553
     3.1074   3.1074   3.2659   3.2659   4.4762   4.4762   4.8191   4.8191
     7.5737   7.5737

          k = 0.0000 0.2722 0.1925 (  5578 PWs)   bands (ev):

   -13.4793 -13.4793 -13.0534 -13.0534 -12.7016 -12.7016 -12.4522 -12.4522
   -12.3151 -12.3151 -12.2405 -12.2405  -2.8169  -2.8169  -2.1658  -2.1658
    -1.2640  -1.2640  -0.6576  -0.6576  -0.0566  -0.0566   0.0545   0.0545
     0.3399   0.3399   0.4695   0.4695   0.5477   0.5477   0.6393   0.6393
     1.3615   1.3615   1.8326   1.8326   2.0410   2.0410   2.1159   2.1159
     2.1582   2.1582   2.3212   2.3212   2.5855   2.5855   2.8973   2.8973
     3.2193   3.2193   3.2807   3.2807   4.7935   4.7935   4.8588   4.8588
     7.7614   7.7614

          k = 0.3536 0.4763-0.0962 (  5578 PWs)   bands (ev):

   -13.1686 -13.1686 -13.0993 -13.0993 -12.7077 -12.7077 -12.6313 -12.6313
   -12.4120 -12.4120 -12.2763 -12.2763  -3.2342  -3.2342  -1.9168  -1.9168
    -1.4876  -1.4876  -0.5778  -0.5778  -0.3525  -0.3525   0.1525   0.1525
     0.4801   0.4801   0.5199   0.5199   1.0376   1.0376   1.2896   1.2896
     1.5030   1.5030   1.7463   1.7463   1.8835   1.8835   2.0685   2.0685
     2.3202   2.3202   2.5576   2.5576   2.6950   2.6950   2.7743   2.7743
     3.0563   3.0563   3.2583   3.2583   4.1622   4.1622   4.8914   4.8914
     7.3831   7.3831

          k = 0.3536-0.2041-0.5774 (  5552 PWs)   bands (ev):

   -13.1214 -13.1214 -12.9916 -12.9916 -12.7898 -12.7898 -12.6906 -12.6906
   -12.4369 -12.4369 -12.2781 -12.2781  -3.3268  -3.3268  -1.8003  -1.8003
    -1.5657  -1.5657  -0.7080  -0.7080  -0.2801  -0.2801  -0.0124  -0.0124
     0.6812   0.6812   0.7575   0.7575   1.1881   1.1881   1.2400   1.2400
     1.5817   1.5817   1.6112   1.6112   1.9337   1.9337   2.0114   2.0114
     2.2574   2.2574   2.6244   2.6244   2.6328   2.6328   2.8412   2.8412
     3.1258   3.1258   3.2902   3.2902   3.9341   3.9341   4.9024   4.9024
     7.3337   7.3337

          k = 0.1179 0.0680 0.1925 (  5587 PWs)   bands (ev):

   -13.5747 -13.5747 -12.9002 -12.9002 -12.7999 -12.7999 -12.3893 -12.3893
   -12.3564 -12.3564 -12.2072 -12.2072  -3.0779  -3.0779  -1.5598  -1.5598
    -1.0819  -1.0819  -0.4672  -0.4672  -0.3380  -0.3380  -0.1448  -0.1448
    -0.0091  -0.0091   0.2366   0.2366   0.6313   0.6313   0.6427   0.6427
     1.3890   1.3890   1.5529   1.5529   1.9634   1.9634   2.2103   2.2103
     2.2255   2.2255   2.4533   2.4533   2.6900   2.6900   2.9900   2.9900
     3.0641   3.0641   3.2364   3.2364   4.9400   4.9400   5.0853   5.0853
     7.9421   7.9421

          k = 0.4714 0.2722-0.0962 (  5608 PWs)   bands (ev):

   -13.1972 -13.1972 -13.1887 -13.1887 -12.6368 -12.6368 -12.6056 -12.6056
   -12.3603 -12.3603 -12.2915 -12.2915  -3.2482  -3.2482  -1.9248  -1.9248
    -1.4392  -1.4392  -0.3416  -0.3416  -0.0072  -0.0072   0.2001   0.2001
     0.2503   0.2503   0.5220   0.5220   0.6264   0.6264   1.1808   1.1808
     1.3830   1.3830   1.5616   1.5616   1.7070   1.7070   2.0641   2.0641
     2.5120   2.5120   2.5434   2.5434   2.7024   2.7024   2.8977   2.8977
     3.0127   3.0127   3.1556   3.1556   4.4359   4.4359   5.0074   5.0074
     7.5211   7.5211

          k = 0.1179 0.2041 0.2887 (  5585 PWs)   bands (ev):

   -13.4322 -13.4322 -13.0331 -13.0331 -12.7205 -12.7205 -12.4772 -12.4772
   -12.3495 -12.3495 -12.2416 -12.2416  -3.1382  -3.1382  -1.8506  -1.8506
    -0.8800  -0.8800  -0.8650  -0.8650  -0.2941  -0.2941   0.1360   0.1360
     0.3026   0.3026   0.4538   0.4538   0.5580   0.5580   0.6762   0.6762
     1.5077   1.5077   1.7336   1.7336   1.8933   1.8933   2.2151   2.2151
     2.3251   2.3251   2.3632   2.3632   2.7237   2.7237   2.8884   2.8884
     3.0490   3.0490   3.2054   3.2054   4.6846   4.6846   4.9008   4.9008
     7.7755   7.7755

          k = 0.4714 0.4082 0.0000 (  5594 PWs)   bands (ev):

   -13.1196 -13.1196 -13.0647 -13.0647 -12.7098 -12.7098 -12.6524 -12.6524
   -12.4368 -12.4368 -12.3224 -12.3224  -3.4040  -3.4040  -2.1546  -2.1546
    -1.1471  -1.1471  -0.3171  -0.3171  -0.0943  -0.0943   0.2227   0.2227
     0.2413   0.2413   0.7084   0.7084   0.8207   0.8207   1.3438   1.3438
     1.4560   1.4560   1.5934   1.5934   1.8126   1.8126   1.9514   1.9514
     2.4021   2.4021   2.6173   2.6173   2.7148   2.7148   2.7811   2.7811
     3.0717   3.0717   3.0881   3.0881   4.2646   4.2646   4.9978   4.9978
     7.5314   7.5314

          k = 0.4714-0.2722-0.4811 (  5628 PWs)   bands (ev):

   -13.0719 -13.0719 -12.9564 -12.9564 -12.7793 -12.7793 -12.6948 -12.6948
   -12.4770 -12.4770 -12.3403 -12.3403  -3.3653  -3.3653  -2.3743  -2.3743
    -0.9845  -0.9845  -0.5083  -0.5083  -0.2256  -0.2256   0.0134   0.0134
     0.5707   0.5707   0.8825   0.8825   1.1967   1.1967   1.2353   1.2353
     1.5893   1.5893   1.6915   1.6915   1.8512   1.8512   1.9878   1.9878
     2.1830   2.1830   2.5864   2.5864   2.6218   2.6218   2.8136   2.8136
     3.1319   3.1319   3.1624   3.1624   4.0858   4.0858   4.8186   4.8186
     7.5012   7.5012

          k = 0.1179-0.3402-0.0962 (  5585 PWs)   bands (ev):

   -13.4334 -13.4334 -13.0229 -13.0229 -12.7414 -12.7414 -12.4471 -12.4471
   -12.3360 -12.3360 -12.2759 -12.2759  -2.5928  -2.5928  -2.4400  -2.4400
    -1.5600  -1.5600  -0.4256  -0.4256  -0.1584  -0.1584   0.0251   0.0251
     0.3045   0.3045   0.4516   0.4516   0.6682   0.6682   1.0537   1.0537
     1.3909   1.3909   1.8237   1.8237   1.9532   1.9532   2.1159   2.1159
     2.2708   2.2708   2.3839   2.3839   2.5952   2.5952   2.9355   2.9355
     3.1209   3.1209   3.2888   3.2888   4.5575   4.5575   4.9254   4.9254
     7.5089   7.5089

          k = 0.4714-0.1361-0.3849 (  5594 PWs)   bands (ev):

   -13.1222 -13.1222 -13.0708 -13.0708 -12.6921 -12.6921 -12.6327 -12.6327
   -12.4459 -12.4459 -12.3448 -12.3448  -3.1201  -3.1201  -2.5277  -2.5277
    -0.9774  -0.9774  -0.5194  -0.5194  -0.4555  -0.4555  -0.0506  -0.0506
     0.6109   0.6109   0.7614   0.7614   1.1328   1.1328   1.3181   1.3181
     1.5880   1.5880   1.7578   1.7578   2.0030   2.0030   2.0980   2.0980
     2.2063   2.2063   2.4256   2.4256   2.6817   2.6817   2.7916   2.7916
     3.0592   3.0592   3.1683   3.1683   4.2167   4.2167   4.6472   4.6472
     7.5166   7.5166

          k = 0.1179-0.2041-0.0000 (  5587 PWs)   bands (ev):

   -13.5747 -13.5747 -12.8865 -12.8865 -12.8159 -12.8159 -12.3722 -12.3722
   -12.3462 -12.3462 -12.2347 -12.2347  -2.6143  -2.6143  -2.0901  -2.0901
    -1.6334  -1.6334  -0.3804  -0.3804  -0.1851  -0.1851  -0.0466  -0.0466
     0.0650   0.0650   0.3883   0.3883   0.6534   0.6534   0.7375   0.7375
     1.5085   1.5085   1.7702   1.7702   1.9427   1.9427   2.1349   2.1349
     2.1754   2.1754   2.3159   2.3159   2.5944   2.5944   3.0029   3.0029
     3.1282   3.1282   3.3091   3.3091   4.7519   4.7519   5.1970   5.1970
     7.7541   7.7541

          k = 0.4714 0.0000-0.2887 (  5608 PWs)   bands (ev):

   -13.1950 -13.1950 -13.1950 -13.1950 -12.6083 -12.6083 -12.6083 -12.6083
   -12.3381 -12.3381 -12.3381 -12.3381  -2.7032  -2.7032  -2.7032  -2.7032
    -0.8882  -0.8882  -0.8882  -0.8882  -0.2558  -0.2558  -0.2558  -0.2558
     0.6675   0.6675   0.6675   0.6675   1.1277   1.1277   1.1277   1.1277
     1.5299   1.5299   1.5299   1.5299   2.1196   2.1196   2.1196   2.1196
     2.2398   2.2398   2.2398   2.2398   2.8174   2.8174   2.8174   2.8174
     3.1393   3.1393   3.1393   3.1393   4.5242   4.5242   4.5242   4.5242
     7.7379   7.7379

          k = 0.2357 0.1361 0.3849 (  5584 PWs)   bands (ev):

   -13.3036 -13.3036 -13.0250 -13.0250 -12.7362 -12.7362 -12.5607 -12.5607
   -12.3941 -12.3941 -12.2613 -12.2613  -3.2913  -3.2913  -1.7824  -1.7824
    -1.1772  -1.1772  -0.6023  -0.6023  -0.5269  -0.5269   0.2596   0.2596
     0.2972   0.2972   0.6572   0.6572   0.6676   0.6676   1.0418   1.0418
     1.3551   1.3551   1.8628   1.8628   1.8894   1.8894   2.3200   2.3200
     2.3255   2.3255   2.4423   2.4423   2.6487   2.6487   2.8887   2.8887
     2.9738   2.9738   3.1825   3.1825   4.3668   4.3668   4.9115   4.9115
     7.5544   7.5544

          k = 0.5893 0.3402 0.0962 (  5614 PWs)   bands (ev):

   -12.9982 -12.9982 -12.9707 -12.9707 -12.7181 -12.7181 -12.6928 -12.6928
   -12.5157 -12.5157 -12.4335 -12.4335  -3.4926  -3.4926  -2.6156  -2.6156
    -0.6380  -0.6380  -0.0089  -0.0089   0.1332   0.1332   0.1689   0.1689
     0.2286   0.2286   0.5798   0.5798   1.0031   1.0031   1.3665   1.3665
     1.5200   1.5200   1.5365   1.5365   1.7386   1.7386   1.9665   1.9665
     2.4182   2.4182   2.5696   2.5696   2.6038   2.6038   2.6806   2.6806
     3.0362   3.0362   3.1109   3.1109   4.2950   4.2950   4.8768   4.8768
     7.8412   7.8412

          k = 0.5893-0.3402-0.3849 (  5604 PWs)   bands (ev):

   -12.9339 -12.9339 -12.8592 -12.8592 -12.7512 -12.7512 -12.7094 -12.7094
   -12.5859 -12.5859 -12.5023 -12.5023  -3.3900  -3.3900  -2.9203  -2.9203
    -0.4177  -0.4177  -0.1050  -0.1050  -0.0416  -0.0416   0.1052   0.1052
     0.4759   0.4759   0.6719   0.6719   1.3104   1.3104   1.3292   1.3292
     1.5359   1.5359   1.6496   1.6496   1.7697   1.7697   2.0861   2.0861
     2.1620   2.1620   2.4925   2.4925   2.5649   2.5649   2.6030   2.6030
     3.1275   3.1275   3.1663   3.1663   4.2680   4.2680   4.6164   4.6164
     7.9229   7.9229

          k = 0.2357-0.4082-0.0000 (  5584 PWs)   bands (ev):

   -13.3091 -13.3091 -12.9919 -12.9919 -12.7981 -12.7981 -12.4860 -12.4860
   -12.4160 -12.4160 -12.2822 -12.2822  -2.9818  -2.9818  -2.1319  -2.1319
    -1.6477  -1.6477  -0.4797  -0.4797  -0.0437  -0.0437   0.0674   0.0674
     0.2644   0.2644   0.4746   0.4746   0.6954   0.6954   1.4513   1.4513
     1.6532   1.6532   1.6696   1.6696   1.9735   1.9735   2.0909   2.0909
     2.2542   2.2542   2.5240   2.5240   2.6978   2.6978   2.7643   2.7643
     3.0374   3.0374   3.2973   3.2973   4.2944   4.2944   4.9143   4.9143
     7.3512   7.3512

          k = 0.5893-0.2041-0.2887 (  5614 PWs)   bands (ev):

   -12.9946 -12.9946 -12.9946 -12.9946 -12.6715 -12.6715 -12.6715 -12.6715
   -12.4997 -12.4997 -12.4997 -12.4997  -3.0593  -3.0593  -3.0593  -3.0593
    -0.4837  -0.4837  -0.4837  -0.4837  -0.1135  -0.1135  -0.1135  -0.1135
     0.6833   0.6833   0.6833   0.6833   1.3242   1.3242   1.3242   1.3242
     1.6515   1.6515   1.6515   1.6515   2.0421   2.0421   2.0421   2.0421
     2.2773   2.2773   2.2773   2.2773   2.6456   2.6456   2.6456   2.6456
     3.1039   3.1039   3.1039   3.1039   4.3993   4.3993   4.3993   4.3993
     7.8946   7.8946

          k = 0.0000 0.0000-0.8660 (  5616 PWs)   bands (ev):

   -12.7457 -12.7457 -12.7457 -12.7457 -12.7457 -12.7457 -12.7457 -12.7457
   -12.6850 -12.6850 -12.6850 -12.6850  -3.2633  -3.2633  -3.2633  -3.2633
[...]

     total cpu time spent up to now is     2282.6 secs

     total energy              =    -220.11944464 Ry
     Harris-Foulkes estimate   =    -220.11944829 Ry
     estimated scf accuracy    <       0.00001228 Ry

     iteration #  4     ecut=    50.00 Ry     beta= 0.70
     Davidson diagonalization with overlap
     ethr =  2.56E-08,  avg # of iterations =  1.3

     negative rho (up, down):  3.767E-07 0.000E+00

     total cpu time spent up to now is     2299.7 secs

     total energy              =    -220.11944626 Ry
     Harris-Foulkes estimate   =    -220.11944627 Ry
     estimated scf accuracy    <       0.00000004 Ry

     iteration #  5     ecut=    50.00 Ry     beta= 0.70
     Davidson diagonalization with overlap
     ethr =  8.47E-11,  avg # of iterations =  3.0

     negative rho (up, down):  3.771E-07 0.000E+00

     total cpu time spent up to now is     2327.1 secs

     total energy              =    -220.11944631 Ry
     Harris-Foulkes estimate   =    -220.11944631 Ry
     estimated scf accuracy    <       0.00000003 Ry

     iteration #  6     ecut=    50.00 Ry     beta= 0.70
     Davidson diagonalization with overlap
     ethr =  6.45E-11,  avg # of iterations =  1.0

     negative rho (up, down):  3.781E-07 0.000E+00

     total cpu time spent up to now is     2344.3 secs

     End of self-consistent calculation

          k = 0.0000 0.0000 0.0000 (  5575 PWs)   bands (ev):

   -15.7675 -15.7675 -15.1584 -15.1584 -14.1172 -14.1172 -14.1172 -14.1172
   -13.6592 -13.6592 -13.6592 -13.6592  -2.5238  -2.5238  -2.2621  -2.2621
    -2.2254  -2.2254  -1.2185  -1.2185  -1.2185  -1.2185  -1.1454  -1.1454
    -1.1454  -1.1454  -0.8298  -0.8298   0.0220   0.0220   0.0812   0.0812
     0.0812   0.0812   0.4754   0.4754   0.4754   0.4754   0.9254   0.9254
     0.9254   0.9254   1.5368   1.5368   1.9847   1.9847   1.9847   1.9847
     2.2643   2.2643   2.6941   2.6941   8.1044   8.1044   8.1044   8.1044
     8.2398   8.2398

          k = 0.3536 0.2041-0.2887 (  5622 PWs)   bands (ev):

   -15.4773 -15.4773 -15.4773 -15.4773 -13.9895 -13.9895 -13.9895 -13.9895
   -13.7883 -13.7883 -13.7883 -13.7883  -2.3611  -2.3611  -2.3611  -2.3611
    -2.3246  -2.3246  -2.3246  -2.3246  -0.7085  -0.7085  -0.7085  -0.7085
    -0.5598  -0.5598  -0.5598  -0.5598  -0.1246  -0.1246  -0.1246  -0.1246
    -0.0810  -0.0810  -0.0810  -0.0810   0.9893   0.9893   0.9893   0.9893
     1.4601   1.4601   1.4601   1.4601   2.0022   2.0022   2.0022   2.0022
     2.3112   2.3112   2.3112   2.3112   7.6312   7.6312   7.6312   7.6312
     8.2477   8.2477

          k = 0.0000 0.1361 0.0962 (  5582 PWs)   bands (ev):

   -15.7299 -15.7299 -15.2034 -15.2034 -14.0938 -14.0938 -14.0915 -14.0915
   -13.6847 -13.6847 -13.6832 -13.6832  -2.5671  -2.5671  -2.2970  -2.2970
    -2.2528  -2.2528  -1.3974  -1.3974  -1.1091  -1.1091  -1.0462  -1.0462
    -1.0017  -1.0017  -0.8785  -0.8785  -0.0330  -0.0330   0.0724   0.0724
     0.1530   0.1530   0.3682   0.3682   0.4977   0.4977   0.9882   0.9882
     1.0727   1.0727   1.5129   1.5129   1.9905   1.9905   2.0226   2.0226
     2.2474   2.2474   2.6218   2.6218   7.9541   7.9541   8.0716   8.0716
     8.1488   8.1488

          k = 0.3536 0.3402-0.1925 (  5574 PWs)   bands (ev):

   -15.5016 -15.5016 -15.4270 -15.4270 -14.0436 -14.0436 -13.9730 -13.9730
   -13.8214 -13.8214 -13.7513 -13.7513  -2.6562  -2.6562  -2.3911  -2.3911
    -2.3254  -2.3254  -1.9856  -1.9856  -0.9752  -0.9752  -0.6600  -0.6600
    -0.5337  -0.5337  -0.4654  -0.4654  -0.2829  -0.2829  -0.0674  -0.0674
     0.0129   0.0129   0.2138   0.2138   0.6749   0.6749   1.2094   1.2094
     1.3825   1.3825   1.5647   1.5647   1.8095   1.8095   2.1697   2.1697
     2.2562   2.2562   2.3502   2.3502   7.3395   7.3395   7.8241   7.8241
     8.1401   8.1401

          k = 0.0000 0.2722 0.1925 (  5578 PWs)   bands (ev):

   -15.6253 -15.6253 -15.3224 -15.3224 -14.0348 -14.0348 -14.0296 -14.0296
   -13.7470 -13.7470 -13.7432 -13.7432  -2.5452  -2.5452  -2.3497  -2.3497
    -2.3160  -2.3160  -1.9095  -1.9095  -0.9019  -0.9019  -0.8370  -0.8370
    -0.7297  -0.7297  -0.5397  -0.5397  -0.2876  -0.2876  -0.0070  -0.0070
     0.0524   0.0524   0.1300   0.1300   0.7613   0.7613   1.0571   1.0571
     1.3387   1.3387   1.4845   1.4845   1.9652   1.9652   2.0526   2.0526
     2.2591   2.2591   2.4505   2.4505   7.6374   7.6374   7.8638   7.8638
     8.1659   8.1659

          k = 0.3536 0.4763-0.0962 (  5578 PWs)   bands (ev):

   -15.5049 -15.5049 -15.3686 -15.3686 -14.1257 -14.1257 -13.9620 -13.9620
   -13.8405 -13.8405 -13.7316 -13.7316  -2.8452  -2.8452  -2.4410  -2.4410
    -2.3279  -2.3279  -1.7073  -1.7073  -1.2572  -1.2572  -0.9133  -0.9133
    -0.4309  -0.4309  -0.3038  -0.3038  -0.0878  -0.0878   0.0298   0.0298
     0.1507   0.1507   0.4589   0.4589   0.5691   0.5691   1.2027   1.2027
     1.2527   1.2527   1.4781   1.4781   1.7860   1.7860   1.9901   1.9901
     2.3274   2.3274   2.5594   2.5594   7.0714   7.0714   7.9295   7.9295
     8.0834   8.0834

          k = 0.3536-0.2041-0.5774 (  5552 PWs)   bands (ev):

   -15.5032 -15.5032 -15.3412 -15.3412 -14.1649 -14.1649 -13.9589 -13.9589
   -13.8447 -13.8447 -13.7279 -13.7279  -2.9046  -2.9046  -2.4583  -2.4583
    -2.3357  -2.3357  -1.5812  -1.5812  -1.2791  -1.2791  -1.2101  -1.2101
    -0.2932  -0.2932  -0.1722  -0.1722  -0.0253  -0.0253   0.0529   0.0529
     0.2191   0.2191   0.5967   0.5967   0.6040   0.6040   1.0431   1.0431
     1.2313   1.2313   1.3668   1.3668   1.8309   1.8309   1.8909   1.8909
     2.3089   2.3089   2.7024   2.7024   6.9604   6.9604   7.9288   7.9288
     8.1053   8.1053

          k = 0.1179 0.0680 0.1925 (  5587 PWs)   bands (ev):

   -15.7084 -15.7084 -15.2098 -15.2098 -14.1314 -14.1314 -14.0523 -14.0523
   -13.7254 -13.7254 -13.6678 -13.6678  -2.4857  -2.4857  -2.3553  -2.3553
    -2.2064  -2.2064  -1.6662  -1.6662  -1.2175  -1.2175  -0.9902  -0.9902
    -0.9624  -0.9624  -0.8957  -0.8957  -0.0274  -0.0274  -0.0039  -0.0039
     0.2877   0.2877   0.5125   0.5125   0.8843   0.8843   0.9996   0.9996
     1.0945   1.0945   1.4489   1.4489   1.9086   1.9086   1.9749   1.9749
     2.1361   2.1361   2.5879   2.5879   7.8038   7.8038   8.0202   8.0202
     8.1163   8.1163

          k = 0.4714 0.2722-0.0962 (  5608 PWs)   bands (ev):

   -15.5172 -15.5172 -15.3859 -15.3859 -14.0573 -14.0573 -13.9591 -13.9591
   -13.8649 -13.8649 -13.7420 -13.7420  -2.9536  -2.9536  -2.4190  -2.4190
    -2.1632  -2.1632  -1.6213  -1.6213  -0.8795  -0.8795  -0.6950  -0.6950
    -0.6583  -0.6583  -0.6092  -0.6092  -0.3068  -0.3068  -0.2016  -0.2016
     0.0996   0.0996   0.4001   0.4001   0.5386   0.5386   1.1793   1.1793
     1.3355   1.3355   1.6667   1.6667   1.6897   1.6897   2.1419   2.1419
     2.3592   2.3592   2.5246   2.5246   7.2561   7.2561   7.7863   7.7863
     8.2412   8.2412

          k = 0.1179 0.2041 0.2887 (  5585 PWs)   bands (ev):

   -15.6247 -15.6247 -15.2914 -15.2914 -14.1120 -14.1120 -13.9883 -13.9883
   -13.7963 -13.7963 -13.6980 -13.6980  -2.4798  -2.4798  -2.4391  -2.4391
    -2.1750  -2.1750  -2.0858  -2.0858  -1.1475  -1.1475  -0.7986  -0.7986
    -0.6761  -0.6761  -0.6198  -0.6198  -0.2609  -0.2609  -0.0602  -0.0602
     0.2027   0.2027   0.4609   0.4609   0.8614   0.8614   1.1466   1.1466
     1.3384   1.3384   1.4690   1.4690   1.7744   1.7744   2.0759   2.0759
     2.1486   2.1486   2.4617   2.4617   7.5333   7.5333   7.8471   7.8471
     8.1028   8.1028

          k = 0.4714 0.4082 0.0000 (  5594 PWs)   bands (ev):

   -15.5057 -15.5057 -15.3471 -15.3471 -14.1074 -14.1074 -13.9447 -13.9447
   -13.8891 -13.8891 -13.7479 -13.7479  -3.1109  -3.1109  -2.5151  -2.5151
    -2.0475  -2.0475  -1.4463  -1.4463  -1.0962  -1.0962  -0.9852  -0.9852
    -0.5143  -0.5143  -0.4005  -0.4005  -0.1785  -0.1785  -0.0605  -0.0605
     0.1788   0.1788   0.3185   0.3185   0.7812   0.7812   0.9725   0.9725
     1.3815   1.3815   1.5158   1.5158   1.7855   1.7855   2.0517   2.0517
     2.2882   2.2882   2.6741   2.6741   7.1386   7.1386   7.8075   7.8075
     8.1436   8.1436

          k = 0.4714-0.2722-0.4811 (  5628 PWs)   bands (ev):

   -15.4850 -15.4850 -15.3436 -15.3436 -14.1363 -14.1363 -13.9617 -13.9617
   -13.8650 -13.8650 -13.7573 -13.7573  -3.0778  -3.0778  -2.6167  -2.6167
    -2.0544  -2.0544  -1.5944  -1.5944  -1.2414  -1.2414  -1.0064  -1.0064
    -0.2759  -0.2759  -0.1375  -0.1375  -0.1187  -0.1187   0.0096   0.0096
     0.2104   0.2104   0.2287   0.2287   0.9579   0.9579   0.9691   0.9691
     1.2913   1.2913   1.4716   1.4716   1.7944   1.7944   1.9920   1.9920
     2.1889   2.1889   2.6422   2.6422   7.1007   7.1007   7.9699   7.9699
     8.0011   8.0011

          k = 0.1179-0.3402-0.0962 (  5585 PWs)   bands (ev):

   -15.5712 -15.5712 -15.3707 -15.3707 -14.0467 -14.0467 -13.9792 -13.9792
   -13.8020 -13.8020 -13.7396 -13.7396  -2.7819  -2.7819  -2.3646  -2.3646
    -2.3337  -2.3337  -1.6290  -1.6290  -0.9076  -0.9076  -0.7252  -0.7252
    -0.5966  -0.5966  -0.3693  -0.3693  -0.3388  -0.3388  -0.1616  -0.1616
    -0.0382  -0.0382   0.0824   0.0824   0.4515   0.4515   1.1528   1.1528
     1.4050   1.4050   1.5352   1.5352   1.9478   1.9478   2.1987   2.1987
     2.3076   2.3076   2.4068   2.4068   7.3549   7.3549   7.9869   7.9869
     8.1733   8.1733

          k = 0.4714-0.1361-0.3849 (  5594 PWs)   bands (ev):

   -15.4684 -15.4684 -15.3883 -15.3883 -14.1013 -14.1013 -13.9996 -13.9996
   -13.8200 -13.8200 -13.7629 -13.7629  -2.8729  -2.8729  -2.6438  -2.6438
    -2.1610  -2.1610  -1.8663  -1.8663  -1.1627  -1.1627  -0.8554  -0.8554
    -0.2901  -0.2901  -0.2129  -0.2129  -0.0304  -0.0304   0.0413   0.0413
     0.0753   0.0753   0.1598   0.1598   0.9428   0.9428   1.1515   1.1515
     1.3523   1.3523   1.5925   1.5925   1.6997   1.6997   2.0610   2.0610
     2.1249   2.1249   2.4015   2.4015   7.2455   7.2455   7.7810   7.7810
     8.1945   8.1945

          k = 0.1179-0.2041-0.0000 (  5587 PWs)   bands (ev):

   -15.6812 -15.6812 -15.2634 -15.2634 -14.0913 -14.0913 -14.0232 -14.0232
   -13.7428 -13.7428 -13.6920 -13.6920  -2.7297  -2.7297  -2.3187  -2.3187
    -2.2938  -2.2938  -1.3341  -1.3341  -1.0506  -1.0506  -0.8895  -0.8895
    -0.7858  -0.7858  -0.5487  -0.5487  -0.3444  -0.3444   0.0002   0.0002
     0.0505   0.0505   0.0600   0.0600   0.4189   0.4189   1.0634   1.0634
     1.2372   1.2372   1.5256   1.5256   2.0157   2.0157   2.0980   2.0980
     2.3888   2.3888   2.5134   2.5134   7.6463   7.6463   8.1113   8.1113
     8.1644   8.1644

          k = 0.4714 0.0000-0.2887 (  5608 PWs)   bands (ev):

   -15.4532 -15.4532 -15.4532 -15.4532 -14.0298 -14.0298 -14.0298 -14.0298
   -13.7795 -13.7795 -13.7795 -13.7795  -2.5695  -2.5695  -2.5695  -2.5695
    -2.1964  -2.1964  -2.1964  -2.1964  -0.9265  -0.9265  -0.9265  -0.9265
    -0.3191  -0.3191  -0.3191  -0.3191  -0.1171  -0.1171  -0.1171  -0.1171
     0.1093   0.1093   0.1093   0.1093   0.9891   0.9891   0.9891   0.9891
     1.5474   1.5474   1.5474   1.5474   1.9397   1.9397   1.9397   1.9397
     2.2130   2.2130   2.2130   2.2130   7.5194   7.5194   7.5194   7.5194
     8.3803   8.3803

          k = 0.2357 0.1361 0.3849 (  5584 PWs)   bands (ev):

   -15.5773 -15.5773 -15.3003 -15.3003 -14.1566 -14.1566 -13.9229 -13.9229
   -13.8729 -13.8729 -13.6961 -13.6961  -2.6760  -2.6760  -2.4578  -2.4578
    -2.2285  -2.2285  -1.9546  -1.9546  -1.3095  -1.3095  -0.7502  -0.7502
    -0.5440  -0.5440  -0.3769  -0.3769  -0.2718  -0.2718  -0.0855  -0.0855
     0.2530   0.2530   0.6153   0.6153   0.7754   0.7754   1.0976   1.0976
     1.3267   1.3267   1.4450   1.4450   1.7507   1.7507   2.0682   2.0682
     2.2915   2.2915   2.4127   2.4127   7.2266   7.2266   7.9635   7.9635
     8.0160   8.0160

          k = 0.5893 0.3402 0.0962 (  5614 PWs)   bands (ev):

   -15.4776 -15.4776 -15.3366 -15.3366 -14.0681 -14.0681 -13.9555 -13.9555
   -13.9192 -13.9192 -13.8007 -13.8007  -3.2696  -3.2696  -2.7365  -2.7365
    -1.7472  -1.7472  -1.3510  -1.3510  -0.9555  -0.9555  -0.8124  -0.8124
    -0.7379  -0.7379  -0.5123  -0.5123  -0.0642  -0.0642  -0.0395  -0.0395
     0.1945   0.1945   0.2283   0.2283   0.7617   0.7617   1.1527   1.1527
     1.4222   1.4222   1.5905   1.5905   1.6822   1.6822   2.0920   2.0920
     2.1578   2.1578   2.6575   2.6575   7.3302   7.3302   7.6431   7.6431
     8.4050   8.4050

          k = 0.5893-0.3402-0.3849 (  5604 PWs)   bands (ev):

   -15.4398 -15.4398 -15.3568 -15.3568 -14.0574 -14.0574 -13.9632 -13.9632
   -13.9099 -13.9099 -13.8380 -13.8380  -3.2228  -3.2228  -2.9320  -2.9320
    -1.6281  -1.6281  -1.4718  -1.4718  -1.0654  -1.0654  -0.8365  -0.8365
    -0.4913  -0.4913  -0.4205  -0.4205   0.0077   0.0077   0.0089   0.0089
     0.1108   0.1108   0.1761   0.1761   1.0108   1.0108   1.2710   1.2710
     1.4022   1.4022   1.5298   1.5298   1.6930   1.6930   1.8316   1.8316
     2.2250   2.2250   2.5371   2.5371   7.4475   7.4475   7.8451   7.8451
     7.9735   7.9735

          k = 0.2357-0.4082-0.0000 (  5584 PWs)   bands (ev):

   -15.4743 -15.4743 -15.4317 -15.4317 -14.0375 -14.0375 -14.0220 -14.0220
   -13.7846 -13.7846 -13.7749 -13.7749  -2.8976  -2.8976  -2.4071  -2.4071
    -2.3507  -2.3507  -1.4987  -1.4987  -1.0571  -1.0571  -0.9011  -0.9011
    -0.6033  -0.6033  -0.3113  -0.3113  -0.1011  -0.1011  -0.0279  -0.0279
     0.0986   0.0986   0.2688   0.2688   0.3011   0.3011   1.1595   1.1595
     1.4484   1.4484   1.5418   1.5418   1.8266   1.8266   2.0794   2.0794
     2.2957   2.2957   2.5550   2.5550   7.1232   7.1232   7.9981   7.9981
     8.0984   8.0984

          k = 0.5893-0.2041-0.2887 (  5614 PWs)   bands (ev):

   -15.4092 -15.4092 -15.4092 -15.4092 -14.0388 -14.0388 -14.0388 -14.0388
   -13.8302 -13.8302 -13.8302 -13.8302  -2.9832  -2.9832  -2.9832  -2.9832
    -1.7769  -1.7769  -1.7769  -1.7769  -0.9559  -0.9559  -0.9559  -0.9559
    -0.2294  -0.2294  -0.2294  -0.2294  -0.0421  -0.0421  -0.0421  -0.0421
     0.0777   0.0777   0.0777   0.0777   1.1924   1.1924   1.1924   1.1924
     1.4858   1.4858   1.4858   1.4858   1.7462   1.7462   1.7462   1.7462
     2.3015   2.3015   2.3015   2.3015   7.6097   7.6097   7.6097   7.6097
     8.1734   8.1734

          k = 0.0000 0.0000-0.8660 (  5616 PWs)   bands (ev):

   -15.3901 -15.3901 -15.3901 -15.3901 -13.9482 -13.9482 -13.9482 -13.9482
   -13.9482 -13.9482 -13.9482 -13.9482  -3.1703  -3.1703  -3.1703  -3.1703
    -1.3777  -1.3777  -1.3777  -1.3777  -0.7719  -0.7719  -0.7719  -0.7719
    -0.7719  -0.7719  -0.7719  -0.7719   0.1008   0.1008   0.1008   0.1008
     0.1008   0.1008   0.1008   0.1008   1.3432   1.3432   1.3432   1.3432
     1.5131   1.5131   1.5131   1.5131   1.5131   1.5131   1.5131   1.5131
     2.4157   2.4157   2.4157   2.4157   7.8624   7.8624   7.8624   7.8624
     7.8624   7.8624

     the Fermi energy is     2.1537 ev

!    total energy              =    -220.11944630 Ry
     Harris-Foulkes estimate   =    -220.11944631 Ry
     estimated scf accuracy    <          6.5E-09 Ry

     The total energy is the sum of the following terms:

     one-electron contribution =     -98.09026532 Ry
     hartree contribution      =      74.18186604 Ry
     xc contribution           =     -59.76246558 Ry
     ewald contribution        =    -136.44213297 Ry
     smearing contrib. (-TS)   =      -0.00644847 Ry

     convergence has been achieved in   6 iterations

     negative rho (up, down):  3.781E-07 0.000E+00

     Forces acting on atoms (cartesian axes, Ry/au):

     atom    1 type  1   force =     0.00000000   -0.00000000   -0.00070364
     atom    2 type  1   force =     0.00000000    0.00000000    0.00070364
     atom    3 type  1   force =     0.00000000   -0.00000000   -0.00070364
     atom    4 type  1   force =     0.00000000   -0.00000000    0.00070364
     atom    5 type  2   force =     0.00063446   -0.00000000    0.00000000
     atom    6 type  2   force =     0.00031723    0.00054946    0.00000000
     atom    7 type  2   force =    -0.00031723    0.00054946    0.00000000
     atom    8 type  2   force =     0.00031723   -0.00054946   -0.00000000
     atom    9 type  2   force =    -0.00031723   -0.00054946   -0.00000000
     atom   10 type  2   force =    -0.00063446    0.00000000    0.00000000

     Total force =     0.002097     Total SCF correction =     0.000094

     bfgs converged in  14 scf cycles and  13 bfgs steps
     (criteria: energy <  1.0E-04 Ry, force <  1.0E-02 Ry/Bohr)

     End of BFGS Geometry Optimization

     Final energy             =    -220.1194463026 Ry
Begin final coordinates

ATOMIC_POSITIONS (crystal)
Al       0.130151189   0.130151189   0.130151189
Al       0.369848811   0.369848811   0.369848811
Al       0.630151189   0.630151189   0.630151189
Al       0.869848811   0.869848811   0.869848811
O       -0.051694668   0.750000000   0.551694668
O        0.250000000   0.448305332   1.051694668
O        0.551694668  -0.051694668   0.750000000
O        0.448305332   1.051694668   0.250000000
O        0.750000000   0.551694668  -0.051694668
O        1.051694668   0.250000000   0.448305332
End final coordinates



     Writing output data file pwscf.save\

     init_run     :     29.52s CPU     12.24s WALL (       1 calls)
     electrons    :   5610.94s CPU   2289.12s WALL (      14 calls)
     update_pot   :      8.84s CPU      4.18s WALL (      13 calls)
     forces       :     87.23s CPU     34.71s WALL (      14 calls)

     Called by init_run:
     wfcinit      :     27.52s CPU     10.19s WALL (       1 calls)
     potinit      :      0.16s CPU      0.08s WALL (       1 calls)
     hinit0       :      1.28s CPU      1.56s WALL (       1 calls)

     Called by electrons:
     c_bands      :   5133.98s CPU   1816.08s WALL (      94 calls)
     sum_band     :    391.42s CPU    425.75s WALL (      94 calls)
     v_of_rho     :      7.89s CPU      2.60s WALL (     108 calls)
     newd         :     55.47s CPU     39.34s WALL (     108 calls)
     mix_rho      :     16.47s CPU      5.93s WALL (      94 calls)

     Called by c_bands:
     init_us_2    :     23.97s CPU     10.18s WALL (    4466 calls)
     cegterg      :   4985.72s CPU   1769.95s WALL (    2068 calls)

     Called by sum_band:
     sum_band:bec :      1.84s CPU      2.52s WALL (    2068 calls)
     addusdens    :     59.83s CPU     38.62s WALL (      94 calls)

     Called by *egterg:
     h_psi        :   3972.73s CPU   1376.45s WALL (    8330 calls)
     s_psi        :     92.12s CPU     55.81s WALL (    8330 calls)
     g_psi        :     15.83s CPU      7.22s WALL (    6240 calls)
     cdiaghg      :    118.61s CPU     40.20s WALL (    8022 calls)

     Called by h_psi:
     h_psi:pot    :   3951.00s CPU   1360.77s WALL (    8330 calls)
     h_psi:calbec :    179.03s CPU     57.63s WALL (    8330 calls)
     vloc_psi     :   3593.39s CPU   1245.33s WALL (    8330 calls)
     add_vuspsi   :    178.33s CPU     57.72s WALL (    8330 calls)

     General routines
     calbec       :    216.75s CPU     87.54s WALL (   11630 calls)
     fft          :      9.00s CPU      3.16s WALL (    1535 calls)
     ffts         :      0.52s CPU      0.34s WALL (     808 calls)
     fftw         :   2069.50s CPU    772.56s WALL ( 1674180 calls)
     interpolate  :      7.75s CPU      2.81s WALL (     432 calls)

     Parallel routines

     PWSCF        :      1h35m CPU  39m 7.26s WALL


   This run was terminated on:  18:50: 3  14Jan2023            

=------------------------------------------------------------------------------=
   JOB DONE.
=------------------------------------------------------------------------------=
